file 334897 1439820787                                          
version 2
run AODVVANET-Simple-100-0-20150817-19:40:36-5236
attr configname AODVVANET-Simple-100
attr datetime 20150817-19:40:36
attr experiment AODVVANET-Simple-100
attr inifile omnetpp.ini
attr iterationvars ""
attr iterationvars2 $repetition=0
attr measurement ""
attr network AODVVANET
attr processid 5236
attr repetition 0
attr replication #0
attr resultdir results
attr runnumber 0
attr seedset 0

vector 2  AODVVANET.rsu[0].wlan.mgmt  dataQueueLen:vector  ETV
attr interpolationmode  sample-hold
attr title  "data queue length, vector"
vector 13  AODVVANET.rsu[0].wlan.mac  RadioState  ETV
attr enum  "IDLE=0, OFF=4, RECV=1, SLEEP=3, TRANSMIT=2"
attr enumname  RadioState
vector 12  AODVVANET.rsu[0].wlan.mac  State  ETV
attr enum  "BACKOFF=3, DEFER=1, IDLE=0, RECEIVE=8, WAITACK=4, WAITAIFS=2, WAITCTS=6, WAITMULTICAST=5, WAITSIFS=7"
attr enumname  Ieee80211Mac
vector 8  AODVVANET.rsu[0].wlan.radio  bitrate:vector  ETV
attr interpolationmode  sample-hold
attr title  "tx bitrate, vector"
attr unit  bps
vector 10  AODVVANET.rsu[0].wlan.radio  radioState:vector  ETV
attr interpolationmode  sample-hold
attr title  "radio state (enum), vector"
vector 9  AODVVANET.rsu[0].wlan.radio  channelNo:vector  ETV
attr interpolationmode  sample-hold
attr title  "channel no, vector"
vector 25  AODVVANET.vehicle[0].wlan.mgmt  dataQueueLen:vector  ETV
attr interpolationmode  sample-hold
attr title  "data queue length, vector"
vector 40  AODVVANET.vehicle[0].wlan.mac  RadioState  ETV
attr enum  "IDLE=0, OFF=4, RECV=1, SLEEP=3, TRANSMIT=2"
attr enumname  RadioState
vector 39  AODVVANET.vehicle[0].wlan.mac  State  ETV
attr enum  "BACKOFF=3, DEFER=1, IDLE=0, RECEIVE=8, WAITACK=4, WAITAIFS=2, WAITCTS=6, WAITMULTICAST=5, WAITSIFS=7"
attr enumname  Ieee80211Mac
vector 42  AODVVANET.vehicle[0].wlan.mac  "throughput AC0"  ETV
vector 31  AODVVANET.vehicle[0].wlan.radio  bitrate:vector  ETV
attr interpolationmode  sample-hold
attr title  "tx bitrate, vector"
attr unit  bps
vector 33  AODVVANET.vehicle[0].wlan.radio  radioState:vector  ETV
attr interpolationmode  sample-hold
attr title  "radio state (enum), vector"
vector 32  AODVVANET.vehicle[0].wlan.radio  channelNo:vector  ETV
attr interpolationmode  sample-hold
attr title  "channel no, vector"
vector 35  AODVVANET.vehicle[0].mobility  posx  ETV
vector 36  AODVVANET.vehicle[0].mobility  posy  ETV
vector 18  AODVVANET.vehicle[0].udp  sentPk:vector(packetBytes)  ETV
attr interpolationmode  none
attr source  sentPk
attr title  "packets sent, vector(packetBytes)"
vector 29  AODVVANET.vehicle[0].wlan.mac  rcvdPkFromHL:vector(packetBytes)  ETV
attr interpolationmode  none
attr source  packetReceivedFromUpper
attr title  "packets received from higher layer, vector(packetBytes)"
vector 28  AODVVANET.vehicle[0].wlan.mac  sentDownPk:vector(packetBytes)  ETV
attr interpolationmode  none
attr source  packetSentToLower
attr title  "packets sent to lower layer, vector(packetBytes)"
vector 37  AODVVANET.vehicle[0].mobility  speed  ETV
vector 38  AODVVANET.vehicle[0].mobility  acceleration  ETV
vector 52  AODVVANET.vehicle[1].wlan.mgmt  dataQueueLen:vector  ETV
attr interpolationmode  sample-hold
attr title  "data queue length, vector"
vector 67  AODVVANET.vehicle[1].wlan.mac  RadioState  ETV
attr enum  "IDLE=0, OFF=4, RECV=1, SLEEP=3, TRANSMIT=2"
attr enumname  RadioState
vector 66  AODVVANET.vehicle[1].wlan.mac  State  ETV
attr enum  "BACKOFF=3, DEFER=1, IDLE=0, RECEIVE=8, WAITACK=4, WAITAIFS=2, WAITCTS=6, WAITMULTICAST=5, WAITSIFS=7"
attr enumname  Ieee80211Mac
vector 69  AODVVANET.vehicle[1].wlan.mac  "throughput AC0"  ETV
vector 58  AODVVANET.vehicle[1].wlan.radio  bitrate:vector  ETV
attr interpolationmode  sample-hold
attr title  "tx bitrate, vector"
attr unit  bps
vector 60  AODVVANET.vehicle[1].wlan.radio  radioState:vector  ETV
attr interpolationmode  sample-hold
attr title  "radio state (enum), vector"
vector 59  AODVVANET.vehicle[1].wlan.radio  channelNo:vector  ETV
attr interpolationmode  sample-hold
attr title  "channel no, vector"
vector 62  AODVVANET.vehicle[1].mobility  posx  ETV
vector 63  AODVVANET.vehicle[1].mobility  posy  ETV
vector 45  AODVVANET.vehicle[1].udp  sentPk:vector(packetBytes)  ETV
attr interpolationmode  none
attr source  sentPk
attr title  "packets sent, vector(packetBytes)"
vector 56  AODVVANET.vehicle[1].wlan.mac  rcvdPkFromHL:vector(packetBytes)  ETV
attr interpolationmode  none
attr source  packetReceivedFromUpper
attr title  "packets received from higher layer, vector(packetBytes)"
vector 55  AODVVANET.vehicle[1].wlan.mac  sentDownPk:vector(packetBytes)  ETV
attr interpolationmode  none
attr source  packetSentToLower
attr title  "packets sent to lower layer, vector(packetBytes)"
vector 79  AODVVANET.vehicle[2].wlan.mgmt  dataQueueLen:vector  ETV
attr interpolationmode  sample-hold
attr title  "data queue length, vector"
vector 94  AODVVANET.vehicle[2].wlan.mac  RadioState  ETV
attr enum  "IDLE=0, OFF=4, RECV=1, SLEEP=3, TRANSMIT=2"
attr enumname  RadioState
vector 93  AODVVANET.vehicle[2].wlan.mac  State  ETV
attr enum  "BACKOFF=3, DEFER=1, IDLE=0, RECEIVE=8, WAITACK=4, WAITAIFS=2, WAITCTS=6, WAITMULTICAST=5, WAITSIFS=7"
attr enumname  Ieee80211Mac
vector 96  AODVVANET.vehicle[2].wlan.mac  "throughput AC0"  ETV
vector 85  AODVVANET.vehicle[2].wlan.radio  bitrate:vector  ETV
attr interpolationmode  sample-hold
attr title  "tx bitrate, vector"
attr unit  bps
vector 87  AODVVANET.vehicle[2].wlan.radio  radioState:vector  ETV
attr interpolationmode  sample-hold
attr title  "radio state (enum), vector"
vector 86  AODVVANET.vehicle[2].wlan.radio  channelNo:vector  ETV
attr interpolationmode  sample-hold
attr title  "channel no, vector"
vector 89  AODVVANET.vehicle[2].mobility  posx  ETV
vector 90  AODVVANET.vehicle[2].mobility  posy  ETV
vector 64  AODVVANET.vehicle[1].mobility  speed  ETV
vector 72  AODVVANET.vehicle[2].udp  sentPk:vector(packetBytes)  ETV
attr interpolationmode  none
attr source  sentPk
attr title  "packets sent, vector(packetBytes)"
vector 83  AODVVANET.vehicle[2].wlan.mac  rcvdPkFromHL:vector(packetBytes)  ETV
attr interpolationmode  none
attr source  packetReceivedFromUpper
attr title  "packets received from higher layer, vector(packetBytes)"
vector 82  AODVVANET.vehicle[2].wlan.mac  sentDownPk:vector(packetBytes)  ETV
attr interpolationmode  none
attr source  packetSentToLower
attr title  "packets sent to lower layer, vector(packetBytes)"
vector 65  AODVVANET.vehicle[1].mobility  acceleration  ETV
vector 91  AODVVANET.vehicle[2].mobility  speed  ETV
vector 92  AODVVANET.vehicle[2].mobility  acceleration  ETV
vector 106  AODVVANET.vehicle[3].wlan.mgmt  dataQueueLen:vector  ETV
attr interpolationmode  sample-hold
attr title  "data queue length, vector"
vector 121  AODVVANET.vehicle[3].wlan.mac  RadioState  ETV
attr enum  "IDLE=0, OFF=4, RECV=1, SLEEP=3, TRANSMIT=2"
attr enumname  RadioState
vector 120  AODVVANET.vehicle[3].wlan.mac  State  ETV
attr enum  "BACKOFF=3, DEFER=1, IDLE=0, RECEIVE=8, WAITACK=4, WAITAIFS=2, WAITCTS=6, WAITMULTICAST=5, WAITSIFS=7"
attr enumname  Ieee80211Mac
vector 123  AODVVANET.vehicle[3].wlan.mac  "throughput AC0"  ETV
vector 112  AODVVANET.vehicle[3].wlan.radio  bitrate:vector  ETV
attr interpolationmode  sample-hold
attr title  "tx bitrate, vector"
attr unit  bps
vector 114  AODVVANET.vehicle[3].wlan.radio  radioState:vector  ETV
attr interpolationmode  sample-hold
attr title  "radio state (enum), vector"
vector 113  AODVVANET.vehicle[3].wlan.radio  channelNo:vector  ETV
attr interpolationmode  sample-hold
attr title  "channel no, vector"
vector 116  AODVVANET.vehicle[3].mobility  posx  ETV
vector 117  AODVVANET.vehicle[3].mobility  posy  ETV
vector 99  AODVVANET.vehicle[3].udp  sentPk:vector(packetBytes)  ETV
attr interpolationmode  none
attr source  sentPk
attr title  "packets sent, vector(packetBytes)"
vector 110  AODVVANET.vehicle[3].wlan.mac  rcvdPkFromHL:vector(packetBytes)  ETV
attr interpolationmode  none
attr source  packetReceivedFromUpper
attr title  "packets received from higher layer, vector(packetBytes)"
vector 109  AODVVANET.vehicle[3].wlan.mac  sentDownPk:vector(packetBytes)  ETV
attr interpolationmode  none
attr source  packetSentToLower
attr title  "packets sent to lower layer, vector(packetBytes)"
vector 118  AODVVANET.vehicle[3].mobility  speed  ETV
vector 133  AODVVANET.vehicle[4].wlan.mgmt  dataQueueLen:vector  ETV
attr interpolationmode  sample-hold
attr title  "data queue length, vector"
vector 148  AODVVANET.vehicle[4].wlan.mac  RadioState  ETV
attr enum  "IDLE=0, OFF=4, RECV=1, SLEEP=3, TRANSMIT=2"
attr enumname  RadioState
vector 147  AODVVANET.vehicle[4].wlan.mac  State  ETV
attr enum  "BACKOFF=3, DEFER=1, IDLE=0, RECEIVE=8, WAITACK=4, WAITAIFS=2, WAITCTS=6, WAITMULTICAST=5, WAITSIFS=7"
attr enumname  Ieee80211Mac
vector 150  AODVVANET.vehicle[4].wlan.mac  "throughput AC0"  ETV
vector 139  AODVVANET.vehicle[4].wlan.radio  bitrate:vector  ETV
attr interpolationmode  sample-hold
attr title  "tx bitrate, vector"
attr unit  bps
vector 141  AODVVANET.vehicle[4].wlan.radio  radioState:vector  ETV
attr interpolationmode  sample-hold
attr title  "radio state (enum), vector"
vector 140  AODVVANET.vehicle[4].wlan.radio  channelNo:vector  ETV
attr interpolationmode  sample-hold
attr title  "channel no, vector"
vector 143  AODVVANET.vehicle[4].mobility  posx  ETV
vector 144  AODVVANET.vehicle[4].mobility  posy  ETV
vector 119  AODVVANET.vehicle[3].mobility  acceleration  ETV
vector 126  AODVVANET.vehicle[4].udp  sentPk:vector(packetBytes)  ETV
attr interpolationmode  none
attr source  sentPk
attr title  "packets sent, vector(packetBytes)"
vector 137  AODVVANET.vehicle[4].wlan.mac  rcvdPkFromHL:vector(packetBytes)  ETV
attr interpolationmode  none
attr source  packetReceivedFromUpper
attr title  "packets received from higher layer, vector(packetBytes)"
vector 136  AODVVANET.vehicle[4].wlan.mac  sentDownPk:vector(packetBytes)  ETV
attr interpolationmode  none
attr source  packetSentToLower
attr title  "packets sent to lower layer, vector(packetBytes)"
vector 145  AODVVANET.vehicle[4].mobility  speed  ETV
vector 160  AODVVANET.vehicle[5].wlan.mgmt  dataQueueLen:vector  ETV
attr interpolationmode  sample-hold
attr title  "data queue length, vector"
vector 175  AODVVANET.vehicle[5].wlan.mac  RadioState  ETV
attr enum  "IDLE=0, OFF=4, RECV=1, SLEEP=3, TRANSMIT=2"
attr enumname  RadioState
vector 174  AODVVANET.vehicle[5].wlan.mac  State  ETV
attr enum  "BACKOFF=3, DEFER=1, IDLE=0, RECEIVE=8, WAITACK=4, WAITAIFS=2, WAITCTS=6, WAITMULTICAST=5, WAITSIFS=7"
attr enumname  Ieee80211Mac
vector 177  AODVVANET.vehicle[5].wlan.mac  "throughput AC0"  ETV
vector 166  AODVVANET.vehicle[5].wlan.radio  bitrate:vector  ETV
attr interpolationmode  sample-hold
attr title  "tx bitrate, vector"
attr unit  bps
vector 168  AODVVANET.vehicle[5].wlan.radio  radioState:vector  ETV
attr interpolationmode  sample-hold
attr title  "radio state (enum), vector"
vector 167  AODVVANET.vehicle[5].wlan.radio  channelNo:vector  ETV
attr interpolationmode  sample-hold
attr title  "channel no, vector"
vector 170  AODVVANET.vehicle[5].mobility  posx  ETV
vector 171  AODVVANET.vehicle[5].mobility  posy  ETV
vector 146  AODVVANET.vehicle[4].mobility  acceleration  ETV
vector 153  AODVVANET.vehicle[5].udp  sentPk:vector(packetBytes)  ETV
attr interpolationmode  none
attr source  sentPk
attr title  "packets sent, vector(packetBytes)"
vector 158  AODVVANET.vehicle[5].networkLayer.arp  sentReq:vector  ETV
attr title  "ARP request sent, vector"
vector 164  AODVVANET.vehicle[5].wlan.mac  rcvdPkFromHL:vector(packetBytes)  ETV
attr interpolationmode  none
attr source  packetReceivedFromUpper
attr title  "packets received from higher layer, vector(packetBytes)"
vector 163  AODVVANET.vehicle[5].wlan.mac  sentDownPk:vector(packetBytes)  ETV
attr interpolationmode  none
attr source  packetSentToLower
attr title  "packets sent to lower layer, vector(packetBytes)"
vector 172  AODVVANET.vehicle[5].mobility  speed  ETV
vector 173  AODVVANET.vehicle[5].mobility  acceleration  ETV
vector 187  AODVVANET.vehicle[6].wlan.mgmt  dataQueueLen:vector  ETV
attr interpolationmode  sample-hold
attr title  "data queue length, vector"
vector 202  AODVVANET.vehicle[6].wlan.mac  RadioState  ETV
attr enum  "IDLE=0, OFF=4, RECV=1, SLEEP=3, TRANSMIT=2"
attr enumname  RadioState
vector 201  AODVVANET.vehicle[6].wlan.mac  State  ETV
attr enum  "BACKOFF=3, DEFER=1, IDLE=0, RECEIVE=8, WAITACK=4, WAITAIFS=2, WAITCTS=6, WAITMULTICAST=5, WAITSIFS=7"
attr enumname  Ieee80211Mac
vector 204  AODVVANET.vehicle[6].wlan.mac  "throughput AC0"  ETV
vector 193  AODVVANET.vehicle[6].wlan.radio  bitrate:vector  ETV
attr interpolationmode  sample-hold
attr title  "tx bitrate, vector"
attr unit  bps
vector 195  AODVVANET.vehicle[6].wlan.radio  radioState:vector  ETV
attr interpolationmode  sample-hold
attr title  "radio state (enum), vector"
vector 194  AODVVANET.vehicle[6].wlan.radio  channelNo:vector  ETV
attr interpolationmode  sample-hold
attr title  "channel no, vector"
vector 197  AODVVANET.vehicle[6].mobility  posx  ETV
vector 198  AODVVANET.vehicle[6].mobility  posy  ETV
vector 180  AODVVANET.vehicle[6].udp  sentPk:vector(packetBytes)  ETV
attr interpolationmode  none
attr source  sentPk
attr title  "packets sent, vector(packetBytes)"
vector 191  AODVVANET.vehicle[6].wlan.mac  rcvdPkFromHL:vector(packetBytes)  ETV
attr interpolationmode  none
attr source  packetReceivedFromUpper
attr title  "packets received from higher layer, vector(packetBytes)"
vector 190  AODVVANET.vehicle[6].wlan.mac  sentDownPk:vector(packetBytes)  ETV
attr interpolationmode  none
attr source  packetSentToLower
attr title  "packets sent to lower layer, vector(packetBytes)"
vector 179  AODVVANET.vehicle[5].wlan.radio  snirVector  ETV
vector 165  AODVVANET.vehicle[5].wlan.mac  rcvdPkFromLL:vector(packetBytes)  ETV
attr interpolationmode  none
attr source  packetReceivedFromLower
attr title  "packets received from lower layer, vector(packetBytes)"
vector 162  AODVVANET.vehicle[5].wlan.mac  passedUpPk:vector(packetBytes)  ETV
attr interpolationmode  none
attr source  packetSentToUpper
attr title  "packets passed to higher layer, vector(packetBytes)"
vector 206  AODVVANET.vehicle[6].wlan.radio  snirVector  ETV
vector 192  AODVVANET.vehicle[6].wlan.mac  rcvdPkFromLL:vector(packetBytes)  ETV
attr interpolationmode  none
attr source  packetReceivedFromLower
attr title  "packets received from lower layer, vector(packetBytes)"
vector 189  AODVVANET.vehicle[6].wlan.mac  passedUpPk:vector(packetBytes)  ETV
attr interpolationmode  none
attr source  packetSentToUpper
attr title  "packets passed to higher layer, vector(packetBytes)"
vector 186  AODVVANET.vehicle[6].networkLayer.arp  sentReply:vector  ETV
attr title  "ARP replies sent, vector"
vector 205  AODVVANET.vehicle[6].wlan.mac  "Mac delay AC0"  ETV
vector 178  AODVVANET.vehicle[5].wlan.mac  "Mac delay AC0"  ETV
vector 154  AODVVANET.vehicle[5].udp  rcvdPk:vector(packetBytes)  ETV
attr interpolationmode  none
attr source  rcvdPk
attr title  "packets received, vector(packetBytes)"
vector 155  AODVVANET.vehicle[5].udp  passedUpPk:vector(count)  ETV
attr interpolationmode  none
attr title  "packets passed up, vector(count)"
vector 199  AODVVANET.vehicle[6].mobility  speed  ETV
vector 214  AODVVANET.vehicle[7].wlan.mgmt  dataQueueLen:vector  ETV
attr interpolationmode  sample-hold
attr title  "data queue length, vector"
vector 229  AODVVANET.vehicle[7].wlan.mac  RadioState  ETV
attr enum  "IDLE=0, OFF=4, RECV=1, SLEEP=3, TRANSMIT=2"
attr enumname  RadioState
vector 228  AODVVANET.vehicle[7].wlan.mac  State  ETV
attr enum  "BACKOFF=3, DEFER=1, IDLE=0, RECEIVE=8, WAITACK=4, WAITAIFS=2, WAITCTS=6, WAITMULTICAST=5, WAITSIFS=7"
attr enumname  Ieee80211Mac
vector 231  AODVVANET.vehicle[7].wlan.mac  "throughput AC0"  ETV
vector 220  AODVVANET.vehicle[7].wlan.radio  bitrate:vector  ETV
attr interpolationmode  sample-hold
attr title  "tx bitrate, vector"
attr unit  bps
vector 222  AODVVANET.vehicle[7].wlan.radio  radioState:vector  ETV
attr interpolationmode  sample-hold
attr title  "radio state (enum), vector"
vector 221  AODVVANET.vehicle[7].wlan.radio  channelNo:vector  ETV
attr interpolationmode  sample-hold
attr title  "channel no, vector"
vector 224  AODVVANET.vehicle[7].mobility  posx  ETV
vector 225  AODVVANET.vehicle[7].mobility  posy  ETV
vector 200  AODVVANET.vehicle[6].mobility  acceleration  ETV
vector 207  AODVVANET.vehicle[7].udp  sentPk:vector(packetBytes)  ETV
attr interpolationmode  none
attr source  sentPk
attr title  "packets sent, vector(packetBytes)"
vector 218  AODVVANET.vehicle[7].wlan.mac  rcvdPkFromHL:vector(packetBytes)  ETV
attr interpolationmode  none
attr source  packetReceivedFromUpper
attr title  "packets received from higher layer, vector(packetBytes)"
vector 217  AODVVANET.vehicle[7].wlan.mac  sentDownPk:vector(packetBytes)  ETV
attr interpolationmode  none
attr source  packetSentToLower
attr title  "packets sent to lower layer, vector(packetBytes)"
vector 226  AODVVANET.vehicle[7].mobility  speed  ETV
vector 227  AODVVANET.vehicle[7].mobility  acceleration  ETV
vector 241  AODVVANET.vehicle[8].wlan.mgmt  dataQueueLen:vector  ETV
attr interpolationmode  sample-hold
attr title  "data queue length, vector"
vector 256  AODVVANET.vehicle[8].wlan.mac  RadioState  ETV
attr enum  "IDLE=0, OFF=4, RECV=1, SLEEP=3, TRANSMIT=2"
attr enumname  RadioState
vector 255  AODVVANET.vehicle[8].wlan.mac  State  ETV
attr enum  "BACKOFF=3, DEFER=1, IDLE=0, RECEIVE=8, WAITACK=4, WAITAIFS=2, WAITCTS=6, WAITMULTICAST=5, WAITSIFS=7"
attr enumname  Ieee80211Mac
vector 258  AODVVANET.vehicle[8].wlan.mac  "throughput AC0"  ETV
vector 247  AODVVANET.vehicle[8].wlan.radio  bitrate:vector  ETV
attr interpolationmode  sample-hold
attr title  "tx bitrate, vector"
attr unit  bps
vector 249  AODVVANET.vehicle[8].wlan.radio  radioState:vector  ETV
attr interpolationmode  sample-hold
attr title  "radio state (enum), vector"
vector 248  AODVVANET.vehicle[8].wlan.radio  channelNo:vector  ETV
attr interpolationmode  sample-hold
attr title  "channel no, vector"
vector 251  AODVVANET.vehicle[8].mobility  posx  ETV
vector 252  AODVVANET.vehicle[8].mobility  posy  ETV
vector 234  AODVVANET.vehicle[8].udp  sentPk:vector(packetBytes)  ETV
attr interpolationmode  none
attr source  sentPk
attr title  "packets sent, vector(packetBytes)"
vector 245  AODVVANET.vehicle[8].wlan.mac  rcvdPkFromHL:vector(packetBytes)  ETV
attr interpolationmode  none
attr source  packetReceivedFromUpper
attr title  "packets received from higher layer, vector(packetBytes)"
vector 244  AODVVANET.vehicle[8].wlan.mac  sentDownPk:vector(packetBytes)  ETV
attr interpolationmode  none
attr source  packetSentToLower
attr title  "packets sent to lower layer, vector(packetBytes)"
vector 253  AODVVANET.vehicle[8].mobility  speed  ETV
vector 254  AODVVANET.vehicle[8].mobility  acceleration  ETV
vector 268  AODVVANET.vehicle[9].wlan.mgmt  dataQueueLen:vector  ETV
attr interpolationmode  sample-hold
attr title  "data queue length, vector"
vector 283  AODVVANET.vehicle[9].wlan.mac  RadioState  ETV
attr enum  "IDLE=0, OFF=4, RECV=1, SLEEP=3, TRANSMIT=2"
attr enumname  RadioState
vector 282  AODVVANET.vehicle[9].wlan.mac  State  ETV
attr enum  "BACKOFF=3, DEFER=1, IDLE=0, RECEIVE=8, WAITACK=4, WAITAIFS=2, WAITCTS=6, WAITMULTICAST=5, WAITSIFS=7"
attr enumname  Ieee80211Mac
vector 285  AODVVANET.vehicle[9].wlan.mac  "throughput AC0"  ETV
vector 274  AODVVANET.vehicle[9].wlan.radio  bitrate:vector  ETV
attr interpolationmode  sample-hold
attr title  "tx bitrate, vector"
attr unit  bps
vector 276  AODVVANET.vehicle[9].wlan.radio  radioState:vector  ETV
attr interpolationmode  sample-hold
attr title  "radio state (enum), vector"
vector 275  AODVVANET.vehicle[9].wlan.radio  channelNo:vector  ETV
attr interpolationmode  sample-hold
attr title  "channel no, vector"
vector 278  AODVVANET.vehicle[9].mobility  posx  ETV
vector 279  AODVVANET.vehicle[9].mobility  posy  ETV
vector 261  AODVVANET.vehicle[9].udp  sentPk:vector(packetBytes)  ETV
attr interpolationmode  none
attr source  sentPk
attr title  "packets sent, vector(packetBytes)"
vector 272  AODVVANET.vehicle[9].wlan.mac  rcvdPkFromHL:vector(packetBytes)  ETV
attr interpolationmode  none
attr source  packetReceivedFromUpper
attr title  "packets received from higher layer, vector(packetBytes)"
vector 271  AODVVANET.vehicle[9].wlan.mac  sentDownPk:vector(packetBytes)  ETV
attr interpolationmode  none
attr source  packetSentToLower
attr title  "packets sent to lower layer, vector(packetBytes)"
vector 280  AODVVANET.vehicle[9].mobility  speed  ETV
vector 281  AODVVANET.vehicle[9].mobility  acceleration  ETV
vector 295  AODVVANET.vehicle[10].wlan.mgmt  dataQueueLen:vector  ETV
attr interpolationmode  sample-hold
attr title  "data queue length, vector"
vector 310  AODVVANET.vehicle[10].wlan.mac  RadioState  ETV
attr enum  "IDLE=0, OFF=4, RECV=1, SLEEP=3, TRANSMIT=2"
attr enumname  RadioState
vector 309  AODVVANET.vehicle[10].wlan.mac  State  ETV
attr enum  "BACKOFF=3, DEFER=1, IDLE=0, RECEIVE=8, WAITACK=4, WAITAIFS=2, WAITCTS=6, WAITMULTICAST=5, WAITSIFS=7"
attr enumname  Ieee80211Mac
vector 312  AODVVANET.vehicle[10].wlan.mac  "throughput AC0"  ETV
vector 301  AODVVANET.vehicle[10].wlan.radio  bitrate:vector  ETV
attr interpolationmode  sample-hold
attr title  "tx bitrate, vector"
attr unit  bps
vector 303  AODVVANET.vehicle[10].wlan.radio  radioState:vector  ETV
attr interpolationmode  sample-hold
attr title  "radio state (enum), vector"
vector 302  AODVVANET.vehicle[10].wlan.radio  channelNo:vector  ETV
attr interpolationmode  sample-hold
attr title  "channel no, vector"
vector 305  AODVVANET.vehicle[10].mobility  posx  ETV
vector 306  AODVVANET.vehicle[10].mobility  posy  ETV
vector 288  AODVVANET.vehicle[10].udp  sentPk:vector(packetBytes)  ETV
attr interpolationmode  none
attr source  sentPk
attr title  "packets sent, vector(packetBytes)"
vector 299  AODVVANET.vehicle[10].wlan.mac  rcvdPkFromHL:vector(packetBytes)  ETV
attr interpolationmode  none
attr source  packetReceivedFromUpper
attr title  "packets received from higher layer, vector(packetBytes)"
vector 298  AODVVANET.vehicle[10].wlan.mac  sentDownPk:vector(packetBytes)  ETV
attr interpolationmode  none
attr source  packetSentToLower
attr title  "packets sent to lower layer, vector(packetBytes)"
vector 307  AODVVANET.vehicle[10].mobility  speed  ETV
vector 308  AODVVANET.vehicle[10].mobility  acceleration  ETV
vector 322  AODVVANET.vehicle[11].wlan.mgmt  dataQueueLen:vector  ETV
attr interpolationmode  sample-hold
attr title  "data queue length, vector"
vector 337  AODVVANET.vehicle[11].wlan.mac  RadioState  ETV
attr enum  "IDLE=0, OFF=4, RECV=1, SLEEP=3, TRANSMIT=2"
attr enumname  RadioState
vector 336  AODVVANET.vehicle[11].wlan.mac  State  ETV
attr enum  "BACKOFF=3, DEFER=1, IDLE=0, RECEIVE=8, WAITACK=4, WAITAIFS=2, WAITCTS=6, WAITMULTICAST=5, WAITSIFS=7"
attr enumname  Ieee80211Mac
vector 339  AODVVANET.vehicle[11].wlan.mac  "throughput AC0"  ETV
vector 328  AODVVANET.vehicle[11].wlan.radio  bitrate:vector  ETV
attr interpolationmode  sample-hold
attr title  "tx bitrate, vector"
attr unit  bps
vector 330  AODVVANET.vehicle[11].wlan.radio  radioState:vector  ETV
attr interpolationmode  sample-hold
attr title  "radio state (enum), vector"
vector 329  AODVVANET.vehicle[11].wlan.radio  channelNo:vector  ETV
attr interpolationmode  sample-hold
attr title  "channel no, vector"
vector 332  AODVVANET.vehicle[11].mobility  posx  ETV
vector 333  AODVVANET.vehicle[11].mobility  posy  ETV
vector 315  AODVVANET.vehicle[11].udp  sentPk:vector(packetBytes)  ETV
attr interpolationmode  none
attr source  sentPk
attr title  "packets sent, vector(packetBytes)"
vector 326  AODVVANET.vehicle[11].wlan.mac  rcvdPkFromHL:vector(packetBytes)  ETV
attr interpolationmode  none
attr source  packetReceivedFromUpper
attr title  "packets received from higher layer, vector(packetBytes)"
vector 325  AODVVANET.vehicle[11].wlan.mac  sentDownPk:vector(packetBytes)  ETV
attr interpolationmode  none
attr source  packetSentToLower
attr title  "packets sent to lower layer, vector(packetBytes)"
18	24188 10 18 18 8 8 1 8 8 8 64
25	24198 10 11 11 8 8 1 0 0 0 0
29	24208 147 23 188 8.003013816851 15.360101091995 6 62 62 372 23064
28	24355 148 24 189 8.003063816851 15.360151091995 6 62 62 372 23064
32	24503 10 11 11 8 8 1 0 0 0 0
31	24513 16 11 11 8 8 1 2000000 2000000 2000000 4000000000000
33	24529 294 11 192 8 15.360839091995 13 0 2 12 24
38	24823 1017 63 1045 10 45 36 -0.097956197597087 2.0183197392081 10.024190877931 18.60118755178
37	25840 958 51 1045 9 45 37 3.9572089270348 13.981399804966 483.67779772601 6524.5714790903
36	26798 604 11 1045 8 45 38 29.95 29.95 1138.1 34086.095
35	27402 979 11 1045 8 45 38 532.58130028169 997.4600291739 28256.449595649 21833533.766622
42	28381 198 11 188 8 15.360101091995 6 0 1536.9150135055 3680.5239600062 4087349.3594657
40	28579 588 11 192 8 15.360839091995 26 0 2 24 48
39	29167 2006 11 194 8 15.360889091995 86 0 5 216 816
vector 334  AODVVANET.vehicle[11].mobility  speed  ETV
vector 335  AODVVANET.vehicle[11].mobility  acceleration  ETV
vector 349  AODVVANET.vehicle[12].wlan.mgmt  dataQueueLen:vector  ETV
attr interpolationmode  sample-hold
attr title  "data queue length, vector"
vector 364  AODVVANET.vehicle[12].wlan.mac  RadioState  ETV
attr enum  "IDLE=0, OFF=4, RECV=1, SLEEP=3, TRANSMIT=2"
attr enumname  RadioState
vector 363  AODVVANET.vehicle[12].wlan.mac  State  ETV
attr enum  "BACKOFF=3, DEFER=1, IDLE=0, RECEIVE=8, WAITACK=4, WAITAIFS=2, WAITCTS=6, WAITMULTICAST=5, WAITSIFS=7"
attr enumname  Ieee80211Mac
vector 366  AODVVANET.vehicle[12].wlan.mac  "throughput AC0"  ETV
vector 355  AODVVANET.vehicle[12].wlan.radio  bitrate:vector  ETV
attr interpolationmode  sample-hold
attr title  "tx bitrate, vector"
attr unit  bps
vector 357  AODVVANET.vehicle[12].wlan.radio  radioState:vector  ETV
attr interpolationmode  sample-hold
attr title  "radio state (enum), vector"
vector 356  AODVVANET.vehicle[12].wlan.radio  channelNo:vector  ETV
attr interpolationmode  sample-hold
attr title  "channel no, vector"
vector 359  AODVVANET.vehicle[12].mobility  posx  ETV
vector 360  AODVVANET.vehicle[12].mobility  posy  ETV
vector 342  AODVVANET.vehicle[12].udp  sentPk:vector(packetBytes)  ETV
attr interpolationmode  none
attr source  sentPk
attr title  "packets sent, vector(packetBytes)"
vector 353  AODVVANET.vehicle[12].wlan.mac  rcvdPkFromHL:vector(packetBytes)  ETV
attr interpolationmode  none
attr source  packetReceivedFromUpper
attr title  "packets received from higher layer, vector(packetBytes)"
vector 352  AODVVANET.vehicle[12].wlan.mac  sentDownPk:vector(packetBytes)  ETV
attr interpolationmode  none
attr source  packetSentToLower
attr title  "packets sent to lower layer, vector(packetBytes)"
vector 376  AODVVANET.vehicle[13].wlan.mgmt  dataQueueLen:vector  ETV
attr interpolationmode  sample-hold
attr title  "data queue length, vector"
vector 391  AODVVANET.vehicle[13].wlan.mac  RadioState  ETV
attr enum  "IDLE=0, OFF=4, RECV=1, SLEEP=3, TRANSMIT=2"
attr enumname  RadioState
vector 390  AODVVANET.vehicle[13].wlan.mac  State  ETV
attr enum  "BACKOFF=3, DEFER=1, IDLE=0, RECEIVE=8, WAITACK=4, WAITAIFS=2, WAITCTS=6, WAITMULTICAST=5, WAITSIFS=7"
attr enumname  Ieee80211Mac
vector 393  AODVVANET.vehicle[13].wlan.mac  "throughput AC0"  ETV
vector 382  AODVVANET.vehicle[13].wlan.radio  bitrate:vector  ETV
attr interpolationmode  sample-hold
attr title  "tx bitrate, vector"
attr unit  bps
vector 384  AODVVANET.vehicle[13].wlan.radio  radioState:vector  ETV
attr interpolationmode  sample-hold
attr title  "radio state (enum), vector"
vector 383  AODVVANET.vehicle[13].wlan.radio  channelNo:vector  ETV
attr interpolationmode  sample-hold
attr title  "channel no, vector"
vector 386  AODVVANET.vehicle[13].mobility  posx  ETV
vector 387  AODVVANET.vehicle[13].mobility  posy  ETV
vector 361  AODVVANET.vehicle[12].mobility  speed  ETV
vector 369  AODVVANET.vehicle[13].udp  sentPk:vector(packetBytes)  ETV
attr interpolationmode  none
attr source  sentPk
attr title  "packets sent, vector(packetBytes)"
vector 380  AODVVANET.vehicle[13].wlan.mac  rcvdPkFromHL:vector(packetBytes)  ETV
attr interpolationmode  none
attr source  packetReceivedFromUpper
attr title  "packets received from higher layer, vector(packetBytes)"
vector 379  AODVVANET.vehicle[13].wlan.mac  sentDownPk:vector(packetBytes)  ETV
attr interpolationmode  none
attr source  packetSentToLower
attr title  "packets sent to lower layer, vector(packetBytes)"
vector 362  AODVVANET.vehicle[12].mobility  acceleration  ETV
vector 388  AODVVANET.vehicle[13].mobility  speed  ETV
vector 389  AODVVANET.vehicle[13].mobility  acceleration  ETV
vector 403  AODVVANET.vehicle[14].wlan.mgmt  dataQueueLen:vector  ETV
attr interpolationmode  sample-hold
attr title  "data queue length, vector"
vector 418  AODVVANET.vehicle[14].wlan.mac  RadioState  ETV
attr enum  "IDLE=0, OFF=4, RECV=1, SLEEP=3, TRANSMIT=2"
attr enumname  RadioState
vector 417  AODVVANET.vehicle[14].wlan.mac  State  ETV
attr enum  "BACKOFF=3, DEFER=1, IDLE=0, RECEIVE=8, WAITACK=4, WAITAIFS=2, WAITCTS=6, WAITMULTICAST=5, WAITSIFS=7"
attr enumname  Ieee80211Mac
vector 420  AODVVANET.vehicle[14].wlan.mac  "throughput AC0"  ETV
vector 409  AODVVANET.vehicle[14].wlan.radio  bitrate:vector  ETV
attr interpolationmode  sample-hold
attr title  "tx bitrate, vector"
attr unit  bps
vector 411  AODVVANET.vehicle[14].wlan.radio  radioState:vector  ETV
attr interpolationmode  sample-hold
attr title  "radio state (enum), vector"
vector 410  AODVVANET.vehicle[14].wlan.radio  channelNo:vector  ETV
attr interpolationmode  sample-hold
attr title  "channel no, vector"
vector 413  AODVVANET.vehicle[14].mobility  posx  ETV
vector 414  AODVVANET.vehicle[14].mobility  posy  ETV