file 186348 1439459935                                          
version 2
run AODVVANET-Orlando-100-0-20150813-15:23:39-8851
attr configname AODVVANET-Orlando-100
attr datetime 20150813-15:23:39
attr experiment AODVVANET-Orlando-100
attr inifile omnetpp.ini
attr iterationvars ""
attr iterationvars2 $repetition=0
attr measurement ""
attr network AODVVANET
attr processid 8851
attr repetition 0
attr replication #0
attr resultdir results
attr runnumber 0
attr seedset 0

vector 2  AODVVANET.rsu[0].wlan.mgmt  dataQueueLen:vector  ETV
attr interpolationmode  sample-hold
attr title  "data queue length, vector"
vector 13  AODVVANET.rsu[0].wlan.mac  RadioState  ETV
attr enum  "IDLE=0, OFF=4, RECV=1, SLEEP=3, TRANSMIT=2"
attr enumname  RadioState
vector 12  AODVVANET.rsu[0].wlan.mac  State  ETV
attr enum  "BACKOFF=3, DEFER=1, IDLE=0, RECEIVE=8, WAITACK=4, WAITAIFS=2, WAITCTS=6, WAITMULTICAST=5, WAITSIFS=7"
attr enumname  Ieee80211Mac
vector 8  AODVVANET.rsu[0].wlan.radio  bitrate:vector  ETV
attr interpolationmode  sample-hold
attr title  "tx bitrate, vector"
attr unit  bps
vector 10  AODVVANET.rsu[0].wlan.radio  radioState:vector  ETV
attr interpolationmode  sample-hold
attr title  "radio state (enum), vector"
vector 9  AODVVANET.rsu[0].wlan.radio  channelNo:vector  ETV
attr interpolationmode  sample-hold
attr title  "channel no, vector"
vector 25  AODVVANET.vehicle[0].wlan.mgmt  dataQueueLen:vector  ETV
attr interpolationmode  sample-hold
attr title  "data queue length, vector"
vector 43  AODVVANET.vehicle[0].manetrouting.wlan[0].mgmt  dataQueueLen:vector  ETV
attr interpolationmode  sample-hold
attr title  "data queue length, vector"
vector 58  AODVVANET.vehicle[0].wlan.mac  RadioState  ETV
attr enum  "IDLE=0, OFF=4, RECV=1, SLEEP=3, TRANSMIT=2"
attr enumname  RadioState
vector 57  AODVVANET.vehicle[0].wlan.mac  State  ETV
attr enum  "BACKOFF=3, DEFER=1, IDLE=0, RECEIVE=8, WAITACK=4, WAITAIFS=2, WAITCTS=6, WAITMULTICAST=5, WAITSIFS=7"
attr enumname  Ieee80211Mac
vector 60  AODVVANET.vehicle[0].wlan.mac  "throughput AC0"  ETV
vector 64  AODVVANET.vehicle[0].manetrouting.wlan[0].mac  RadioState  ETV
attr enum  "IDLE=0, OFF=4, RECV=1, SLEEP=3, TRANSMIT=2"
attr enumname  RadioState
vector 63  AODVVANET.vehicle[0].manetrouting.wlan[0].mac  State  ETV
attr enum  "BACKOFF=3, DEFER=1, IDLE=0, RECEIVE=8, WAITACK=4, WAITAIFS=2, WAITCTS=6, WAITMULTICAST=5, WAITSIFS=7"
attr enumname  Ieee80211Mac
vector 66  AODVVANET.vehicle[0].manetrouting.wlan[0].mac  "throughput AC0"  ETV
vector 31  AODVVANET.vehicle[0].wlan.radio  bitrate:vector  ETV
attr interpolationmode  sample-hold
attr title  "tx bitrate, vector"
attr unit  bps
vector 33  AODVVANET.vehicle[0].wlan.radio  radioState:vector  ETV
attr interpolationmode  sample-hold
attr title  "radio state (enum), vector"
vector 32  AODVVANET.vehicle[0].wlan.radio  channelNo:vector  ETV
attr interpolationmode  sample-hold
attr title  "channel no, vector"
vector 49  AODVVANET.vehicle[0].manetrouting.wlan[0].radio  bitrate:vector  ETV
attr interpolationmode  sample-hold
attr title  "tx bitrate, vector"
attr unit  bps
vector 51  AODVVANET.vehicle[0].manetrouting.wlan[0].radio  radioState:vector  ETV
attr interpolationmode  sample-hold
attr title  "radio state (enum), vector"
vector 50  AODVVANET.vehicle[0].manetrouting.wlan[0].radio  channelNo:vector  ETV
attr interpolationmode  sample-hold
attr title  "channel no, vector"
vector 53  AODVVANET.vehicle[0].mobility  posx  ETV
vector 54  AODVVANET.vehicle[0].mobility  posy  ETV
vector 18  AODVVANET.vehicle[0].udp  sentPk:vector(packetBytes)  ETV
attr interpolationmode  none
attr source  sentPk
attr title  "packets sent, vector(packetBytes)"
vector 23  AODVVANET.vehicle[0].networkLayer.arp  sentReq:vector  ETV
attr title  "ARP request sent, vector"
vector 29  AODVVANET.vehicle[0].wlan.mac  rcvdPkFromHL:vector(packetBytes)  ETV
attr interpolationmode  none
attr source  packetReceivedFromUpper
attr title  "packets received from higher layer, vector(packetBytes)"
vector 28  AODVVANET.vehicle[0].wlan.mac  sentDownPk:vector(packetBytes)  ETV
attr interpolationmode  none
attr source  packetSentToLower
attr title  "packets sent to lower layer, vector(packetBytes)"
vector 68  AODVVANET.vehicle[0].manetrouting.wlan[0].radio  snirVector  ETV
vector 48  AODVVANET.vehicle[0].manetrouting.wlan[0].mac  rcvdPkFromLL:vector(packetBytes)  ETV
attr interpolationmode  none
attr source  packetReceivedFromLower
attr title  "packets received from lower layer, vector(packetBytes)"
vector 45  AODVVANET.vehicle[0].manetrouting.wlan[0].mac  passedUpPk:vector(packetBytes)  ETV
attr interpolationmode  none
attr source  packetSentToUpper
attr title  "packets passed to higher layer, vector(packetBytes)"
vector 55  AODVVANET.vehicle[0].mobility  speed  ETV
vector 56  AODVVANET.vehicle[0].mobility  acceleration  ETV
vector 40  AODVVANET.vehicle[0].manetrouting.wlan[0].agent  sentRequest:vector  ETV
attr title  "sent requests, vector"
vector 47  AODVVANET.vehicle[0].manetrouting.wlan[0].mac  rcvdPkFromHL:vector(packetBytes)  ETV
attr interpolationmode  none
attr source  packetReceivedFromUpper
attr title  "packets received from higher layer, vector(packetBytes)"
vector 46  AODVVANET.vehicle[0].manetrouting.wlan[0].mac  sentDownPk:vector(packetBytes)  ETV
attr interpolationmode  none
attr source  packetSentToLower
attr title  "packets sent to lower layer, vector(packetBytes)"
vector 62  AODVVANET.vehicle[0].wlan.radio  snirVector  ETV
vector 30  AODVVANET.vehicle[0].wlan.mac  rcvdPkFromLL:vector(packetBytes)  ETV
attr interpolationmode  none
attr source  packetReceivedFromLower
attr title  "packets received from lower layer, vector(packetBytes)"
vector 27  AODVVANET.vehicle[0].wlan.mac  passedUpPk:vector(packetBytes)  ETV
attr interpolationmode  none
attr source  packetSentToUpper
attr title  "packets passed to higher layer, vector(packetBytes)"
vector 42  AODVVANET.vehicle[0].manetrouting.wlan[0].agent  dropConfirm:vector  ETV
attr title  "dropped confirms, vector"
vector 76  AODVVANET.vehicle[1].wlan.mgmt  dataQueueLen:vector  ETV
attr interpolationmode  sample-hold
attr title  "data queue length, vector"
vector 94  AODVVANET.vehicle[1].manetrouting.wlan[0].mgmt  dataQueueLen:vector  ETV
attr interpolationmode  sample-hold
attr title  "data queue length, vector"
vector 109  AODVVANET.vehicle[1].wlan.mac  RadioState  ETV
attr enum  "IDLE=0, OFF=4, RECV=1, SLEEP=3, TRANSMIT=2"
attr enumname  RadioState
vector 108  AODVVANET.vehicle[1].wlan.mac  State  ETV
attr enum  "BACKOFF=3, DEFER=1, IDLE=0, RECEIVE=8, WAITACK=4, WAITAIFS=2, WAITCTS=6, WAITMULTICAST=5, WAITSIFS=7"
attr enumname  Ieee80211Mac
vector 111  AODVVANET.vehicle[1].wlan.mac  "throughput AC0"  ETV
vector 115  AODVVANET.vehicle[1].manetrouting.wlan[0].mac  RadioState  ETV
attr enum  "IDLE=0, OFF=4, RECV=1, SLEEP=3, TRANSMIT=2"
attr enumname  RadioState
vector 114  AODVVANET.vehicle[1].manetrouting.wlan[0].mac  State  ETV
attr enum  "BACKOFF=3, DEFER=1, IDLE=0, RECEIVE=8, WAITACK=4, WAITAIFS=2, WAITCTS=6, WAITMULTICAST=5, WAITSIFS=7"
attr enumname  Ieee80211Mac
vector 117  AODVVANET.vehicle[1].manetrouting.wlan[0].mac  "throughput AC0"  ETV
vector 82  AODVVANET.vehicle[1].wlan.radio  bitrate:vector  ETV
attr interpolationmode  sample-hold
attr title  "tx bitrate, vector"
attr unit  bps
vector 84  AODVVANET.vehicle[1].wlan.radio  radioState:vector  ETV
attr interpolationmode  sample-hold
attr title  "radio state (enum), vector"
vector 83  AODVVANET.vehicle[1].wlan.radio  channelNo:vector  ETV
attr interpolationmode  sample-hold
attr title  "channel no, vector"
vector 100  AODVVANET.vehicle[1].manetrouting.wlan[0].radio  bitrate:vector  ETV
attr interpolationmode  sample-hold
attr title  "tx bitrate, vector"
attr unit  bps
vector 102  AODVVANET.vehicle[1].manetrouting.wlan[0].radio  radioState:vector  ETV
attr interpolationmode  sample-hold
attr title  "radio state (enum), vector"
vector 101  AODVVANET.vehicle[1].manetrouting.wlan[0].radio  channelNo:vector  ETV
attr interpolationmode  sample-hold
attr title  "channel no, vector"
vector 104  AODVVANET.vehicle[1].mobility  posx  ETV
vector 105  AODVVANET.vehicle[1].mobility  posy  ETV
vector 69  AODVVANET.vehicle[1].udp  sentPk:vector(packetBytes)  ETV
attr interpolationmode  none
attr source  sentPk
attr title  "packets sent, vector(packetBytes)"
vector 74  AODVVANET.vehicle[1].networkLayer.arp  sentReq:vector  ETV
attr title  "ARP request sent, vector"
vector 80  AODVVANET.vehicle[1].wlan.mac  rcvdPkFromHL:vector(packetBytes)  ETV
attr interpolationmode  none
attr source  packetReceivedFromUpper
attr title  "packets received from higher layer, vector(packetBytes)"
vector 79  AODVVANET.vehicle[1].wlan.mac  sentDownPk:vector(packetBytes)  ETV
attr interpolationmode  none
attr source  packetSentToLower
attr title  "packets sent to lower layer, vector(packetBytes)"
vector 119  AODVVANET.vehicle[1].manetrouting.wlan[0].radio  snirVector  ETV
vector 99  AODVVANET.vehicle[1].manetrouting.wlan[0].mac  rcvdPkFromLL:vector(packetBytes)  ETV
attr interpolationmode  none
attr source  packetReceivedFromLower
attr title  "packets received from lower layer, vector(packetBytes)"
vector 106  AODVVANET.vehicle[1].mobility  speed  ETV
vector 91  AODVVANET.vehicle[1].manetrouting.wlan[0].agent  sentRequest:vector  ETV
attr title  "sent requests, vector"
vector 107  AODVVANET.vehicle[1].mobility  acceleration  ETV
vector 98  AODVVANET.vehicle[1].manetrouting.wlan[0].mac  rcvdPkFromHL:vector(packetBytes)  ETV
attr interpolationmode  none
attr source  packetReceivedFromUpper
attr title  "packets received from higher layer, vector(packetBytes)"
vector 97  AODVVANET.vehicle[1].manetrouting.wlan[0].mac  sentDownPk:vector(packetBytes)  ETV
attr interpolationmode  none
attr source  packetSentToLower
attr title  "packets sent to lower layer, vector(packetBytes)"
vector 113  AODVVANET.vehicle[1].wlan.radio  snirVector  ETV
vector 81  AODVVANET.vehicle[1].wlan.mac  rcvdPkFromLL:vector(packetBytes)  ETV
attr interpolationmode  none
attr source  packetReceivedFromLower
attr title  "packets received from lower layer, vector(packetBytes)"
vector 78  AODVVANET.vehicle[1].wlan.mac  passedUpPk:vector(packetBytes)  ETV
attr interpolationmode  none
attr source  packetSentToUpper
attr title  "packets passed to higher layer, vector(packetBytes)"
vector 96  AODVVANET.vehicle[1].manetrouting.wlan[0].mac  passedUpPk:vector(packetBytes)  ETV
attr interpolationmode  none
attr source  packetSentToUpper
attr title  "packets passed to higher layer, vector(packetBytes)"
vector 93  AODVVANET.vehicle[1].manetrouting.wlan[0].agent  dropConfirm:vector  ETV
attr title  "dropped confirms, vector"
vector 127  AODVVANET.vehicle[2].wlan.mgmt  dataQueueLen:vector  ETV
attr interpolationmode  sample-hold
attr title  "data queue length, vector"
vector 145  AODVVANET.vehicle[2].manetrouting.wlan[0].mgmt  dataQueueLen:vector  ETV
attr interpolationmode  sample-hold
attr title  "data queue length, vector"
vector 160  AODVVANET.vehicle[2].wlan.mac  RadioState  ETV
attr enum  "IDLE=0, OFF=4, RECV=1, SLEEP=3, TRANSMIT=2"
attr enumname  RadioState
vector 159  AODVVANET.vehicle[2].wlan.mac  State  ETV
attr enum  "BACKOFF=3, DEFER=1, IDLE=0, RECEIVE=8, WAITACK=4, WAITAIFS=2, WAITCTS=6, WAITMULTICAST=5, WAITSIFS=7"
attr enumname  Ieee80211Mac
vector 162  AODVVANET.vehicle[2].wlan.mac  "throughput AC0"  ETV
vector 166  AODVVANET.vehicle[2].manetrouting.wlan[0].mac  RadioState  ETV
attr enum  "IDLE=0, OFF=4, RECV=1, SLEEP=3, TRANSMIT=2"
attr enumname  RadioState
vector 165  AODVVANET.vehicle[2].manetrouting.wlan[0].mac  State  ETV
attr enum  "BACKOFF=3, DEFER=1, IDLE=0, RECEIVE=8, WAITACK=4, WAITAIFS=2, WAITCTS=6, WAITMULTICAST=5, WAITSIFS=7"
attr enumname  Ieee80211Mac
vector 168  AODVVANET.vehicle[2].manetrouting.wlan[0].mac  "throughput AC0"  ETV
vector 133  AODVVANET.vehicle[2].wlan.radio  bitrate:vector  ETV
attr interpolationmode  sample-hold
attr title  "tx bitrate, vector"
attr unit  bps
vector 135  AODVVANET.vehicle[2].wlan.radio  radioState:vector  ETV
attr interpolationmode  sample-hold
attr title  "radio state (enum), vector"
vector 134  AODVVANET.vehicle[2].wlan.radio  channelNo:vector  ETV
attr interpolationmode  sample-hold
attr title  "channel no, vector"
vector 151  AODVVANET.vehicle[2].manetrouting.wlan[0].radio  bitrate:vector  ETV
attr interpolationmode  sample-hold
attr title  "tx bitrate, vector"
attr unit  bps
vector 153  AODVVANET.vehicle[2].manetrouting.wlan[0].radio  radioState:vector  ETV
attr interpolationmode  sample-hold
attr title  "radio state (enum), vector"
vector 152  AODVVANET.vehicle[2].manetrouting.wlan[0].radio  channelNo:vector  ETV
attr interpolationmode  sample-hold
attr title  "channel no, vector"
vector 155  AODVVANET.vehicle[2].mobility  posx  ETV
vector 156  AODVVANET.vehicle[2].mobility  posy  ETV
vector 120  AODVVANET.vehicle[2].udp  sentPk:vector(packetBytes)  ETV
attr interpolationmode  none
attr source  sentPk
attr title  "packets sent, vector(packetBytes)"
vector 125  AODVVANET.vehicle[2].networkLayer.arp  sentReq:vector  ETV
attr title  "ARP request sent, vector"
vector 131  AODVVANET.vehicle[2].wlan.mac  rcvdPkFromHL:vector(packetBytes)  ETV
attr interpolationmode  none
attr source  packetReceivedFromUpper
attr title  "packets received from higher layer, vector(packetBytes)"
vector 130  AODVVANET.vehicle[2].wlan.mac  sentDownPk:vector(packetBytes)  ETV
attr interpolationmode  none
attr source  packetSentToLower
attr title  "packets sent to lower layer, vector(packetBytes)"
vector 170  AODVVANET.vehicle[2].manetrouting.wlan[0].radio  snirVector  ETV
vector 150  AODVVANET.vehicle[2].manetrouting.wlan[0].mac  rcvdPkFromLL:vector(packetBytes)  ETV
attr interpolationmode  none
attr source  packetReceivedFromLower
attr title  "packets received from lower layer, vector(packetBytes)"
vector 142  AODVVANET.vehicle[2].manetrouting.wlan[0].agent  sentRequest:vector  ETV
attr title  "sent requests, vector"
vector 164  AODVVANET.vehicle[2].wlan.radio  snirVector  ETV
vector 132  AODVVANET.vehicle[2].wlan.mac  rcvdPkFromLL:vector(packetBytes)  ETV
attr interpolationmode  none
attr source  packetReceivedFromLower
attr title  "packets received from lower layer, vector(packetBytes)"
vector 129  AODVVANET.vehicle[2].wlan.mac  passedUpPk:vector(packetBytes)  ETV
attr interpolationmode  none
attr source  packetSentToUpper
attr title  "packets passed to higher layer, vector(packetBytes)"
vector 147  AODVVANET.vehicle[2].manetrouting.wlan[0].mac  passedUpPk:vector(packetBytes)  ETV
attr interpolationmode  none
attr source  packetSentToUpper
attr title  "packets passed to higher layer, vector(packetBytes)"
vector 157  AODVVANET.vehicle[2].mobility  speed  ETV
vector 149  AODVVANET.vehicle[2].manetrouting.wlan[0].mac  rcvdPkFromHL:vector(packetBytes)  ETV
attr interpolationmode  none
attr source  packetReceivedFromUpper
attr title  "packets received from higher layer, vector(packetBytes)"
vector 148  AODVVANET.vehicle[2].manetrouting.wlan[0].mac  sentDownPk:vector(packetBytes)  ETV
attr interpolationmode  none
attr source  packetSentToLower
attr title  "packets sent to lower layer, vector(packetBytes)"
vector 158  AODVVANET.vehicle[2].mobility  acceleration  ETV
vector 144  AODVVANET.vehicle[2].manetrouting.wlan[0].agent  dropConfirm:vector  ETV
attr title  "dropped confirms, vector"
vector 178  AODVVANET.vehicle[3].wlan.mgmt  dataQueueLen:vector  ETV
attr interpolationmode  sample-hold
attr title  "data queue length, vector"
vector 196  AODVVANET.vehicle[3].manetrouting.wlan[0].mgmt  dataQueueLen:vector  ETV
attr interpolationmode  sample-hold
attr title  "data queue length, vector"
vector 211  AODVVANET.vehicle[3].wlan.mac  RadioState  ETV
attr enum  "IDLE=0, OFF=4, RECV=1, SLEEP=3, TRANSMIT=2"
attr enumname  RadioState
vector 210  AODVVANET.vehicle[3].wlan.mac  State  ETV
attr enum  "BACKOFF=3, DEFER=1, IDLE=0, RECEIVE=8, WAITACK=4, WAITAIFS=2, WAITCTS=6, WAITMULTICAST=5, WAITSIFS=7"
attr enumname  Ieee80211Mac
vector 213  AODVVANET.vehicle[3].wlan.mac  "throughput AC0"  ETV
vector 217  AODVVANET.vehicle[3].manetrouting.wlan[0].mac  RadioState  ETV
attr enum  "IDLE=0, OFF=4, RECV=1, SLEEP=3, TRANSMIT=2"
attr enumname  RadioState
vector 216  AODVVANET.vehicle[3].manetrouting.wlan[0].mac  State  ETV
attr enum  "BACKOFF=3, DEFER=1, IDLE=0, RECEIVE=8, WAITACK=4, WAITAIFS=2, WAITCTS=6, WAITMULTICAST=5, WAITSIFS=7"
attr enumname  Ieee80211Mac
vector 219  AODVVANET.vehicle[3].manetrouting.wlan[0].mac  "throughput AC0"  ETV
vector 184  AODVVANET.vehicle[3].wlan.radio  bitrate:vector  ETV
attr interpolationmode  sample-hold
attr title  "tx bitrate, vector"
attr unit  bps
vector 186  AODVVANET.vehicle[3].wlan.radio  radioState:vector  ETV
attr interpolationmode  sample-hold
attr title  "radio state (enum), vector"
vector 185  AODVVANET.vehicle[3].wlan.radio  channelNo:vector  ETV
attr interpolationmode  sample-hold
attr title  "channel no, vector"
vector 202  AODVVANET.vehicle[3].manetrouting.wlan[0].radio  bitrate:vector  ETV
attr interpolationmode  sample-hold
attr title  "tx bitrate, vector"
attr unit  bps
vector 204  AODVVANET.vehicle[3].manetrouting.wlan[0].radio  radioState:vector  ETV
attr interpolationmode  sample-hold
attr title  "radio state (enum), vector"
vector 203  AODVVANET.vehicle[3].manetrouting.wlan[0].radio  channelNo:vector  ETV
attr interpolationmode  sample-hold
attr title  "channel no, vector"
vector 206  AODVVANET.vehicle[3].mobility  posx  ETV
vector 207  AODVVANET.vehicle[3].mobility  posy  ETV
vector 171  AODVVANET.vehicle[3].udp  sentPk:vector(packetBytes)  ETV
attr interpolationmode  none
attr source  sentPk
attr title  "packets sent, vector(packetBytes)"
vector 176  AODVVANET.vehicle[3].networkLayer.arp  sentReq:vector  ETV
attr title  "ARP request sent, vector"
vector 182  AODVVANET.vehicle[3].wlan.mac  rcvdPkFromHL:vector(packetBytes)  ETV
attr interpolationmode  none
attr source  packetReceivedFromUpper
attr title  "packets received from higher layer, vector(packetBytes)"
vector 181  AODVVANET.vehicle[3].wlan.mac  sentDownPk:vector(packetBytes)  ETV
attr interpolationmode  none
attr source  packetSentToLower
attr title  "packets sent to lower layer, vector(packetBytes)"
vector 221  AODVVANET.vehicle[3].manetrouting.wlan[0].radio  snirVector  ETV
vector 201  AODVVANET.vehicle[3].manetrouting.wlan[0].mac  rcvdPkFromLL:vector(packetBytes)  ETV
attr interpolationmode  none
attr source  packetReceivedFromLower
attr title  "packets received from lower layer, vector(packetBytes)"
vector 215  AODVVANET.vehicle[3].wlan.radio  snirVector  ETV
vector 183  AODVVANET.vehicle[3].wlan.mac  rcvdPkFromLL:vector(packetBytes)  ETV
attr interpolationmode  none
attr source  packetReceivedFromLower
attr title  "packets received from lower layer, vector(packetBytes)"
vector 180  AODVVANET.vehicle[3].wlan.mac  passedUpPk:vector(packetBytes)  ETV
attr interpolationmode  none
attr source  packetSentToUpper
attr title  "packets passed to higher layer, vector(packetBytes)"
vector 198  AODVVANET.vehicle[3].manetrouting.wlan[0].mac  passedUpPk:vector(packetBytes)  ETV
attr interpolationmode  none
attr source  packetSentToUpper
attr title  "packets passed to higher layer, vector(packetBytes)"
vector 208  AODVVANET.vehicle[3].mobility  speed  ETV
vector 193  AODVVANET.vehicle[3].manetrouting.wlan[0].agent  sentRequest:vector  ETV
attr title  "sent requests, vector"
vector 209  AODVVANET.vehicle[3].mobility  acceleration  ETV
vector 200  AODVVANET.vehicle[3].manetrouting.wlan[0].mac  rcvdPkFromHL:vector(packetBytes)  ETV
attr interpolationmode  none
attr source  packetReceivedFromUpper
attr title  "packets received from higher layer, vector(packetBytes)"
vector 199  AODVVANET.vehicle[3].manetrouting.wlan[0].mac  sentDownPk:vector(packetBytes)  ETV
attr interpolationmode  none
attr source  packetSentToLower
attr title  "packets sent to lower layer, vector(packetBytes)"
vector 195  AODVVANET.vehicle[3].manetrouting.wlan[0].agent  dropConfirm:vector  ETV
attr title  "dropped confirms, vector"
vector 229  AODVVANET.vehicle[4].wlan.mgmt  dataQueueLen:vector  ETV
attr interpolationmode  sample-hold
attr title  "data queue length, vector"
vector 247  AODVVANET.vehicle[4].manetrouting.wlan[0].mgmt  dataQueueLen:vector  ETV
attr interpolationmode  sample-hold
attr title  "data queue length, vector"
vector 262  AODVVANET.vehicle[4].wlan.mac  RadioState  ETV
attr enum  "IDLE=0, OFF=4, RECV=1, SLEEP=3, TRANSMIT=2"
attr enumname  RadioState
vector 261  AODVVANET.vehicle[4].wlan.mac  State  ETV
attr enum  "BACKOFF=3, DEFER=1, IDLE=0, RECEIVE=8, WAITACK=4, WAITAIFS=2, WAITCTS=6, WAITMULTICAST=5, WAITSIFS=7"
attr enumname  Ieee80211Mac
vector 264  AODVVANET.vehicle[4].wlan.mac  "throughput AC0"  ETV
vector 268  AODVVANET.vehicle[4].manetrouting.wlan[0].mac  RadioState  ETV
attr enum  "IDLE=0, OFF=4, RECV=1, SLEEP=3, TRANSMIT=2"
attr enumname  RadioState
vector 267  AODVVANET.vehicle[4].manetrouting.wlan[0].mac  State  ETV
attr enum  "BACKOFF=3, DEFER=1, IDLE=0, RECEIVE=8, WAITACK=4, WAITAIFS=2, WAITCTS=6, WAITMULTICAST=5, WAITSIFS=7"
attr enumname  Ieee80211Mac
vector 270  AODVVANET.vehicle[4].manetrouting.wlan[0].mac  "throughput AC0"  ETV
vector 235  AODVVANET.vehicle[4].wlan.radio  bitrate:vector  ETV
attr interpolationmode  sample-hold
attr title  "tx bitrate, vector"
attr unit  bps
vector 237  AODVVANET.vehicle[4].wlan.radio  radioState:vector  ETV
attr interpolationmode  sample-hold
attr title  "radio state (enum), vector"
vector 236  AODVVANET.vehicle[4].wlan.radio  channelNo:vector  ETV
attr interpolationmode  sample-hold
attr title  "channel no, vector"
vector 253  AODVVANET.vehicle[4].manetrouting.wlan[0].radio  bitrate:vector  ETV
attr interpolationmode  sample-hold
attr title  "tx bitrate, vector"
attr unit  bps
vector 255  AODVVANET.vehicle[4].manetrouting.wlan[0].radio  radioState:vector  ETV
attr interpolationmode  sample-hold
attr title  "radio state (enum), vector"
vector 254  AODVVANET.vehicle[4].manetrouting.wlan[0].radio  channelNo:vector  ETV
attr interpolationmode  sample-hold
attr title  "channel no, vector"
vector 257  AODVVANET.vehicle[4].mobility  posx  ETV
vector 258  AODVVANET.vehicle[4].mobility  posy  ETV
vector 222  AODVVANET.vehicle[4].udp  sentPk:vector(packetBytes)  ETV
attr interpolationmode  none
attr source  sentPk
attr title  "packets sent, vector(packetBytes)"
vector 227  AODVVANET.vehicle[4].networkLayer.arp  sentReq:vector  ETV
attr title  "ARP request sent, vector"
vector 233  AODVVANET.vehicle[4].wlan.mac  rcvdPkFromHL:vector(packetBytes)  ETV
attr interpolationmode  none
attr source  packetReceivedFromUpper
attr title  "packets received from higher layer, vector(packetBytes)"
vector 232  AODVVANET.vehicle[4].wlan.mac  sentDownPk:vector(packetBytes)  ETV
attr interpolationmode  none
attr source  packetSentToLower
attr title  "packets sent to lower layer, vector(packetBytes)"
vector 272  AODVVANET.vehicle[4].manetrouting.wlan[0].radio  snirVector  ETV
vector 252  AODVVANET.vehicle[4].manetrouting.wlan[0].mac  rcvdPkFromLL:vector(packetBytes)  ETV
attr interpolationmode  none
attr source  packetReceivedFromLower
attr title  "packets received from lower layer, vector(packetBytes)"
vector 259  AODVVANET.vehicle[4].mobility  speed  ETV
vector 260  AODVVANET.vehicle[4].mobility  acceleration  ETV
vector 244  AODVVANET.vehicle[4].manetrouting.wlan[0].agent  sentRequest:vector  ETV
attr title  "sent requests, vector"
vector 266  AODVVANET.vehicle[4].wlan.radio  snirVector  ETV
vector 234  AODVVANET.vehicle[4].wlan.mac  rcvdPkFromLL:vector(packetBytes)  ETV
attr interpolationmode  none
attr source  packetReceivedFromLower
attr title  "packets received from lower layer, vector(packetBytes)"
vector 231  AODVVANET.vehicle[4].wlan.mac  passedUpPk:vector(packetBytes)  ETV
attr interpolationmode  none
attr source  packetSentToUpper
attr title  "packets passed to higher layer, vector(packetBytes)"
vector 249  AODVVANET.vehicle[4].manetrouting.wlan[0].mac  passedUpPk:vector(packetBytes)  ETV
attr interpolationmode  none
attr source  packetSentToUpper
attr title  "packets passed to higher layer, vector(packetBytes)"
vector 251  AODVVANET.vehicle[4].manetrouting.wlan[0].mac  rcvdPkFromHL:vector(packetBytes)  ETV
attr interpolationmode  none
attr source  packetReceivedFromUpper
attr title  "packets received from higher layer, vector(packetBytes)"
vector 250  AODVVANET.vehicle[4].manetrouting.wlan[0].mac  sentDownPk:vector(packetBytes)  ETV
attr interpolationmode  none
attr source  packetSentToLower
attr title  "packets sent to lower layer, vector(packetBytes)"
vector 246  AODVVANET.vehicle[4].manetrouting.wlan[0].agent  dropConfirm:vector  ETV
attr title  "dropped confirms, vector"
vector 280  AODVVANET.vehicle[5].wlan.mgmt  dataQueueLen:vector  ETV
attr interpolationmode  sample-hold
attr title  "data queue length, vector"
vector 298  AODVVANET.vehicle[5].manetrouting.wlan[0].mgmt  dataQueueLen:vector  ETV
attr interpolationmode  sample-hold
attr title  "data queue length, vector"
vector 313  AODVVANET.vehicle[5].wlan.mac  RadioState  ETV
attr enum  "IDLE=0, OFF=4, RECV=1, SLEEP=3, TRANSMIT=2"
attr enumname  RadioState
vector 312  AODVVANET.vehicle[5].wlan.mac  State  ETV
attr enum  "BACKOFF=3, DEFER=1, IDLE=0, RECEIVE=8, WAITACK=4, WAITAIFS=2, WAITCTS=6, WAITMULTICAST=5, WAITSIFS=7"
attr enumname  Ieee80211Mac
vector 315  AODVVANET.vehicle[5].wlan.mac  "throughput AC0"  ETV
vector 319  AODVVANET.vehicle[5].manetrouting.wlan[0].mac  RadioState  ETV
attr enum  "IDLE=0, OFF=4, RECV=1, SLEEP=3, TRANSMIT=2"
attr enumname  RadioState
vector 318  AODVVANET.vehicle[5].manetrouting.wlan[0].mac  State  ETV
attr enum  "BACKOFF=3, DEFER=1, IDLE=0, RECEIVE=8, WAITACK=4, WAITAIFS=2, WAITCTS=6, WAITMULTICAST=5, WAITSIFS=7"
attr enumname  Ieee80211Mac
vector 321  AODVVANET.vehicle[5].manetrouting.wlan[0].mac  "throughput AC0"  ETV
vector 286  AODVVANET.vehicle[5].wlan.radio  bitrate:vector  ETV
attr interpolationmode  sample-hold
attr title  "tx bitrate, vector"
attr unit  bps
vector 288  AODVVANET.vehicle[5].wlan.radio  radioState:vector  ETV
attr interpolationmode  sample-hold
attr title  "radio state (enum), vector"
vector 287  AODVVANET.vehicle[5].wlan.radio  channelNo:vector  ETV
attr interpolationmode  sample-hold
attr title  "channel no, vector"
vector 304  AODVVANET.vehicle[5].manetrouting.wlan[0].radio  bitrate:vector  ETV
attr interpolationmode  sample-hold
attr title  "tx bitrate, vector"
attr unit  bps
vector 306  AODVVANET.vehicle[5].manetrouting.wlan[0].radio  radioState:vector  ETV
attr interpolationmode  sample-hold
attr title  "radio state (enum), vector"
vector 305  AODVVANET.vehicle[5].manetrouting.wlan[0].radio  channelNo:vector  ETV
attr interpolationmode  sample-hold
attr title  "channel no, vector"
vector 308  AODVVANET.vehicle[5].mobility  posx  ETV
vector 309  AODVVANET.vehicle[5].mobility  posy  ETV
vector 273  AODVVANET.vehicle[5].udp  sentPk:vector(packetBytes)  ETV
attr interpolationmode  none
attr source  sentPk
attr title  "packets sent, vector(packetBytes)"
vector 278  AODVVANET.vehicle[5].networkLayer.arp  sentReq:vector  ETV
attr title  "ARP request sent, vector"
vector 284  AODVVANET.vehicle[5].wlan.mac  rcvdPkFromHL:vector(packetBytes)  ETV
attr interpolationmode  none
attr source  packetReceivedFromUpper
attr title  "packets received from higher layer, vector(packetBytes)"
vector 283  AODVVANET.vehicle[5].wlan.mac  sentDownPk:vector(packetBytes)  ETV
attr interpolationmode  none
attr source  packetSentToLower
attr title  "packets sent to lower layer, vector(packetBytes)"
2	27560 8 0 0 0 0 1 0 0 0 0
8	27568 14 0 0 0 0 1 2000000 2000000 2000000 4000000000000
9	27582 8 0 0 0 0 1 0 0 0 0
10	27590 9 0 0 0 0 1 0 0 0 0
12	27599 18 0 0 0 0 2 0 0 0 0
13	27617 18 0 0 0 0 2 0 0 0 0
18	27635 12 43 43 3.1 3.1 1 8 8 8 64
23	27647 38 45 291 3.1 5.1 3 1 1 3 3
25	27685 12 34 34 3.1 3.1 1 0 0 0 0
27	27697 1120 74 2086 3.454737521177 8.806627519736 44 40 40 1760 70400
28	28817 53 49 315 3.10005 5.10005 3 70 70 210 14700
29	28870 41 48 310 3.1 5.1 3 70 70 210 14700
30	28911 1179 74 2086 3.454737521177 8.806627519736 47 40 70 1970 85100
31	30090 18 34 34 3.1 3.1 1 2000000 2000000 2000000 4000000000000
32	30108 12 34 34 3.1 3.1 1 0 0 0 0
33	30120 2411 34 2077 3.1 8.806627519736 103 0 2 55 61
40	32531 387 61 2121 3.354175521177 9.054175521177 16 1 1 16 16
42	32918 364 81 2121 3.604175521177 9.054175521177 15 1 1 15 15
43	33282 12 34 34 3.1 3.1 1 0 0 0 0
45	33294 760 55 2087 3.100802 8.806627519736 30 40 70 1230 51300
46	34054 378 68 1931 3.454225521177 8.754225521177 15 40 40 600 24000
47	34432 378 67 1930 3.454175521177 8.754175521177 15 40 40 600 24000
48	34810 857 55 2087 3.100802 8.806627519736 35 40 70 1580 75800
49	35667 19 34 34 3.1 3.1 1 54000000 54000000 54000000 2.916e+15
50	35686 12 34 34 3.1 3.1 1 0 0 0 0
51	35698 2375 34 2078 3.1 8.806627519736 101 0 2 65 95
53	38073 1639 34 2137 3.1 9.1 61 471.7816679648 472.11391858596 28785.54319318 13583730.075585
54	39712 1641 34 2137 3.1 9.1 61 1720.8174643817 1756.9800438945 106428.97403757 185697917.02211
55	41353 1616 59 2137 3.2 9.1 60 0.24961093867011 12.064217283822 373.68977655218 3030.1852248262
56	42969 1587 60 2137 3.3 9.1 59 1.3151140186004 2.5938958732877 118.14606345152 243.49726469783
57	44556 7580 34 2086 3.1 8.806627519736 330 0 5 112 412
58	52136 4822 34 2077 3.1 8.806627519736 206 0 2 110 122
60	56958 520 34 1889 3.1 8.715082456396 22 0 5277.2676550348 9458.0384833549 37108098.998418
62	57478 37 73 73 3.454737521177 3.454737521177 1 132.95829190052 132.95829190052 132.95829190052 17677.907385105
63	57515 10024 34 2087 3.1 8.806627519736 422 0 5 540 2040
64	67539 4750 34 2078 3.1 8.806627519736 202 0 2 130 190
66	72289 636 34 1890 3.1 8.715082456396 22 0 3017.0030825898 19912.102743857 36864553.457432
68	72925 31 54 54 3.100802 3.100802 1 102.95829190052 102.95829190052 102.95829190052 10600.409871074
69	72956 13 131 131 4.1 4.1 1 8 8 8 64