version 2
run AODVVANET-Simple-100-0-20150817-19:40:36-5236
attr configname AODVVANET-Simple-100
attr datetime 20150817-19:40:36
attr experiment AODVVANET-Simple-100
attr inifile omnetpp.ini
attr iterationvars ""
attr iterationvars2 $repetition=0
attr measurement ""
attr network AODVVANET
attr processid 5236
attr repetition 0
attr replication #0
attr resultdir results
attr runnumber 0
attr seedset 0

vector 2  AODVVANET.rsu[0].wlan.mgmt  dataQueueLen:vector  ETV
attr interpolationmode  sample-hold
attr title  "data queue length, vector"
vector 13  AODVVANET.rsu[0].wlan.mac  RadioState  ETV
attr enum  "IDLE=0, OFF=4, RECV=1, SLEEP=3, TRANSMIT=2"
attr enumname  RadioState
vector 12  AODVVANET.rsu[0].wlan.mac  State  ETV
attr enum  "BACKOFF=3, DEFER=1, IDLE=0, RECEIVE=8, WAITACK=4, WAITAIFS=2, WAITCTS=6, WAITMULTICAST=5, WAITSIFS=7"
attr enumname  Ieee80211Mac
vector 8  AODVVANET.rsu[0].wlan.radio  bitrate:vector  ETV
attr interpolationmode  sample-hold
attr title  "tx bitrate, vector"
attr unit  bps
vector 10  AODVVANET.rsu[0].wlan.radio  radioState:vector  ETV
attr interpolationmode  sample-hold
attr title  "radio state (enum), vector"
vector 9  AODVVANET.rsu[0].wlan.radio  channelNo:vector  ETV
attr interpolationmode  sample-hold
attr title  "channel no, vector"
vector 25  AODVVANET.vehicle[0].wlan.mgmt  dataQueueLen:vector  ETV
attr interpolationmode  sample-hold
attr title  "data queue length, vector"
vector 40  AODVVANET.vehicle[0].wlan.mac  RadioState  ETV
attr enum  "IDLE=0, OFF=4, RECV=1, SLEEP=3, TRANSMIT=2"
attr enumname  RadioState
vector 39  AODVVANET.vehicle[0].wlan.mac  State  ETV
attr enum  "BACKOFF=3, DEFER=1, IDLE=0, RECEIVE=8, WAITACK=4, WAITAIFS=2, WAITCTS=6, WAITMULTICAST=5, WAITSIFS=7"
attr enumname  Ieee80211Mac
vector 42  AODVVANET.vehicle[0].wlan.mac  "throughput AC0"  ETV
vector 31  AODVVANET.vehicle[0].wlan.radio  bitrate:vector  ETV
attr interpolationmode  sample-hold
attr title  "tx bitrate, vector"
attr unit  bps
vector 33  AODVVANET.vehicle[0].wlan.radio  radioState:vector  ETV
attr interpolationmode  sample-hold
attr title  "radio state (enum), vector"
vector 32  AODVVANET.vehicle[0].wlan.radio  channelNo:vector  ETV
attr interpolationmode  sample-hold
attr title  "channel no, vector"
vector 35  AODVVANET.vehicle[0].mobility  posx  ETV
vector 36  AODVVANET.vehicle[0].mobility  posy  ETV
vector 18  AODVVANET.vehicle[0].udp  sentPk:vector(packetBytes)  ETV
attr interpolationmode  none
attr source  sentPk
attr title  "packets sent, vector(packetBytes)"
vector 29  AODVVANET.vehicle[0].wlan.mac  rcvdPkFromHL:vector(packetBytes)  ETV
attr interpolationmode  none
attr source  packetReceivedFromUpper
attr title  "packets received from higher layer, vector(packetBytes)"
vector 28  AODVVANET.vehicle[0].wlan.mac  sentDownPk:vector(packetBytes)  ETV
attr interpolationmode  none
attr source  packetSentToLower
attr title  "packets sent to lower layer, vector(packetBytes)"
vector 37  AODVVANET.vehicle[0].mobility  speed  ETV
vector 38  AODVVANET.vehicle[0].mobility  acceleration  ETV
vector 52  AODVVANET.vehicle[1].wlan.mgmt  dataQueueLen:vector  ETV
attr interpolationmode  sample-hold
attr title  "data queue length, vector"
vector 67  AODVVANET.vehicle[1].wlan.mac  RadioState  ETV
attr enum  "IDLE=0, OFF=4, RECV=1, SLEEP=3, TRANSMIT=2"
attr enumname  RadioState
vector 66  AODVVANET.vehicle[1].wlan.mac  State  ETV
attr enum  "BACKOFF=3, DEFER=1, IDLE=0, RECEIVE=8, WAITACK=4, WAITAIFS=2, WAITCTS=6, WAITMULTICAST=5, WAITSIFS=7"
attr enumname  Ieee80211Mac
vector 69  AODVVANET.vehicle[1].wlan.mac  "throughput AC0"  ETV
vector 58  AODVVANET.vehicle[1].wlan.radio  bitrate:vector  ETV
attr interpolationmode  sample-hold
attr title  "tx bitrate, vector"
attr unit  bps
vector 60  AODVVANET.vehicle[1].wlan.radio  radioState:vector  ETV
attr interpolationmode  sample-hold
attr title  "radio state (enum), vector"
vector 59  AODVVANET.vehicle[1].wlan.radio  channelNo:vector  ETV
attr interpolationmode  sample-hold
attr title  "channel no, vector"
vector 62  AODVVANET.vehicle[1].mobility  posx  ETV
vector 63  AODVVANET.vehicle[1].mobility  posy  ETV
vector 45  AODVVANET.vehicle[1].udp  sentPk:vector(packetBytes)  ETV
attr interpolationmode  none
attr source  sentPk
attr title  "packets sent, vector(packetBytes)"
vector 56  AODVVANET.vehicle[1].wlan.mac  rcvdPkFromHL:vector(packetBytes)  ETV
attr interpolationmode  none
attr source  packetReceivedFromUpper
attr title  "packets received from higher layer, vector(packetBytes)"
vector 55  AODVVANET.vehicle[1].wlan.mac  sentDownPk:vector(packetBytes)  ETV
attr interpolationmode  none
attr source  packetSentToLower
attr title  "packets sent to lower layer, vector(packetBytes)"
vector 79  AODVVANET.vehicle[2].wlan.mgmt  dataQueueLen:vector  ETV
attr interpolationmode  sample-hold
attr title  "data queue length, vector"
vector 94  AODVVANET.vehicle[2].wlan.mac  RadioState  ETV
attr enum  "IDLE=0, OFF=4, RECV=1, SLEEP=3, TRANSMIT=2"
attr enumname  RadioState
vector 93  AODVVANET.vehicle[2].wlan.mac  State  ETV
attr enum  "BACKOFF=3, DEFER=1, IDLE=0, RECEIVE=8, WAITACK=4, WAITAIFS=2, WAITCTS=6, WAITMULTICAST=5, WAITSIFS=7"
attr enumname  Ieee80211Mac
vector 96  AODVVANET.vehicle[2].wlan.mac  "throughput AC0"  ETV
vector 85  AODVVANET.vehicle[2].wlan.radio  bitrate:vector  ETV
attr interpolationmode  sample-hold
attr title  "tx bitrate, vector"
attr unit  bps
vector 87  AODVVANET.vehicle[2].wlan.radio  radioState:vector  ETV
attr interpolationmode  sample-hold
attr title  "radio state (enum), vector"
vector 86  AODVVANET.vehicle[2].wlan.radio  channelNo:vector  ETV
attr interpolationmode  sample-hold
attr title  "channel no, vector"
vector 89  AODVVANET.vehicle[2].mobility  posx  ETV
vector 90  AODVVANET.vehicle[2].mobility  posy  ETV
vector 64  AODVVANET.vehicle[1].mobility  speed  ETV
vector 72  AODVVANET.vehicle[2].udp  sentPk:vector(packetBytes)  ETV
attr interpolationmode  none
attr source  sentPk
attr title  "packets sent, vector(packetBytes)"
vector 83  AODVVANET.vehicle[2].wlan.mac  rcvdPkFromHL:vector(packetBytes)  ETV
attr interpolationmode  none
attr source  packetReceivedFromUpper
attr title  "packets received from higher layer, vector(packetBytes)"
vector 82  AODVVANET.vehicle[2].wlan.mac  sentDownPk:vector(packetBytes)  ETV
attr interpolationmode  none
attr source  packetSentToLower
attr title  "packets sent to lower layer, vector(packetBytes)"
vector 65  AODVVANET.vehicle[1].mobility  acceleration  ETV
vector 91  AODVVANET.vehicle[2].mobility  speed  ETV
vector 92  AODVVANET.vehicle[2].mobility  acceleration  ETV
vector 106  AODVVANET.vehicle[3].wlan.mgmt  dataQueueLen:vector  ETV
attr interpolationmode  sample-hold
attr title  "data queue length, vector"
vector 121  AODVVANET.vehicle[3].wlan.mac  RadioState  ETV
attr enum  "IDLE=0, OFF=4, RECV=1, SLEEP=3, TRANSMIT=2"
attr enumname  RadioState
vector 120  AODVVANET.vehicle[3].wlan.mac  State  ETV
attr enum  "BACKOFF=3, DEFER=1, IDLE=0, RECEIVE=8, WAITACK=4, WAITAIFS=2, WAITCTS=6, WAITMULTICAST=5, WAITSIFS=7"
attr enumname  Ieee80211Mac
vector 123  AODVVANET.vehicle[3].wlan.mac  "throughput AC0"  ETV
vector 112  AODVVANET.vehicle[3].wlan.radio  bitrate:vector  ETV
attr interpolationmode  sample-hold
attr title  "tx bitrate, vector"
attr unit  bps
vector 114  AODVVANET.vehicle[3].wlan.radio  radioState:vector  ETV
attr interpolationmode  sample-hold
attr title  "radio state (enum), vector"
vector 113  AODVVANET.vehicle[3].wlan.radio  channelNo:vector  ETV
attr interpolationmode  sample-hold
attr title  "channel no, vector"
vector 116  AODVVANET.vehicle[3].mobility  posx  ETV
vector 117  AODVVANET.vehicle[3].mobility  posy  ETV
vector 99  AODVVANET.vehicle[3].udp  sentPk:vector(packetBytes)  ETV
attr interpolationmode  none
attr source  sentPk
attr title  "packets sent, vector(packetBytes)"
vector 110  AODVVANET.vehicle[3].wlan.mac  rcvdPkFromHL:vector(packetBytes)  ETV
attr interpolationmode  none
attr source  packetReceivedFromUpper
attr title  "packets received from higher layer, vector(packetBytes)"
vector 109  AODVVANET.vehicle[3].wlan.mac  sentDownPk:vector(packetBytes)  ETV
attr interpolationmode  none
attr source  packetSentToLower
attr title  "packets sent to lower layer, vector(packetBytes)"
vector 118  AODVVANET.vehicle[3].mobility  speed  ETV
vector 133  AODVVANET.vehicle[4].wlan.mgmt  dataQueueLen:vector  ETV
attr interpolationmode  sample-hold
attr title  "data queue length, vector"
vector 148  AODVVANET.vehicle[4].wlan.mac  RadioState  ETV
attr enum  "IDLE=0, OFF=4, RECV=1, SLEEP=3, TRANSMIT=2"
attr enumname  RadioState
vector 147  AODVVANET.vehicle[4].wlan.mac  State  ETV
attr enum  "BACKOFF=3, DEFER=1, IDLE=0, RECEIVE=8, WAITACK=4, WAITAIFS=2, WAITCTS=6, WAITMULTICAST=5, WAITSIFS=7"
attr enumname  Ieee80211Mac
vector 150  AODVVANET.vehicle[4].wlan.mac  "throughput AC0"  ETV
vector 139  AODVVANET.vehicle[4].wlan.radio  bitrate:vector  ETV
attr interpolationmode  sample-hold
attr title  "tx bitrate, vector"
attr unit  bps
vector 141  AODVVANET.vehicle[4].wlan.radio  radioState:vector  ETV
attr interpolationmode  sample-hold
attr title  "radio state (enum), vector"
vector 140  AODVVANET.vehicle[4].wlan.radio  channelNo:vector  ETV
attr interpolationmode  sample-hold
attr title  "channel no, vector"
vector 143  AODVVANET.vehicle[4].mobility  posx  ETV
vector 144  AODVVANET.vehicle[4].mobility  posy  ETV
vector 119  AODVVANET.vehicle[3].mobility  acceleration  ETV
vector 126  AODVVANET.vehicle[4].udp  sentPk:vector(packetBytes)  ETV
attr interpolationmode  none
attr source  sentPk
attr title  "packets sent, vector(packetBytes)"
vector 137  AODVVANET.vehicle[4].wlan.mac  rcvdPkFromHL:vector(packetBytes)  ETV
attr interpolationmode  none
attr source  packetReceivedFromUpper
attr title  "packets received from higher layer, vector(packetBytes)"
vector 136  AODVVANET.vehicle[4].wlan.mac  sentDownPk:vector(packetBytes)  ETV
attr interpolationmode  none
attr source  packetSentToLower
attr title  "packets sent to lower layer, vector(packetBytes)"
vector 145  AODVVANET.vehicle[4].mobility  speed  ETV
vector 160  AODVVANET.vehicle[5].wlan.mgmt  dataQueueLen:vector  ETV
attr interpolationmode  sample-hold
attr title  "data queue length, vector"
vector 175  AODVVANET.vehicle[5].wlan.mac  RadioState  ETV
attr enum  "IDLE=0, OFF=4, RECV=1, SLEEP=3, TRANSMIT=2"
attr enumname  RadioState
vector 174  AODVVANET.vehicle[5].wlan.mac  State  ETV
attr enum  "BACKOFF=3, DEFER=1, IDLE=0, RECEIVE=8, WAITACK=4, WAITAIFS=2, WAITCTS=6, WAITMULTICAST=5, WAITSIFS=7"
attr enumname  Ieee80211Mac
vector 177  AODVVANET.vehicle[5].wlan.mac  "throughput AC0"  ETV
vector 166  AODVVANET.vehicle[5].wlan.radio  bitrate:vector  ETV
attr interpolationmode  sample-hold
attr title  "tx bitrate, vector"
attr unit  bps
vector 168  AODVVANET.vehicle[5].wlan.radio  radioState:vector  ETV
attr interpolationmode  sample-hold
attr title  "radio state (enum), vector"
vector 167  AODVVANET.vehicle[5].wlan.radio  channelNo:vector  ETV
attr interpolationmode  sample-hold
attr title  "channel no, vector"
vector 170  AODVVANET.vehicle[5].mobility  posx  ETV
vector 171  AODVVANET.vehicle[5].mobility  posy  ETV
vector 146  AODVVANET.vehicle[4].mobility  acceleration  ETV
vector 153  AODVVANET.vehicle[5].udp  sentPk:vector(packetBytes)  ETV
attr interpolationmode  none
attr source  sentPk
attr title  "packets sent, vector(packetBytes)"
vector 158  AODVVANET.vehicle[5].networkLayer.arp  sentReq:vector  ETV
attr title  "ARP request sent, vector"
vector 164  AODVVANET.vehicle[5].wlan.mac  rcvdPkFromHL:vector(packetBytes)  ETV
attr interpolationmode  none
attr source  packetReceivedFromUpper
attr title  "packets received from higher layer, vector(packetBytes)"
vector 163  AODVVANET.vehicle[5].wlan.mac  sentDownPk:vector(packetBytes)  ETV
attr interpolationmode  none
attr source  packetSentToLower
attr title  "packets sent to lower layer, vector(packetBytes)"
vector 172  AODVVANET.vehicle[5].mobility  speed  ETV
vector 173  AODVVANET.vehicle[5].mobility  acceleration  ETV
vector 187  AODVVANET.vehicle[6].wlan.mgmt  dataQueueLen:vector  ETV
attr interpolationmode  sample-hold
attr title  "data queue length, vector"
vector 202  AODVVANET.vehicle[6].wlan.mac  RadioState  ETV
attr enum  "IDLE=0, OFF=4, RECV=1, SLEEP=3, TRANSMIT=2"
attr enumname  RadioState
vector 201  AODVVANET.vehicle[6].wlan.mac  State  ETV
attr enum  "BACKOFF=3, DEFER=1, IDLE=0, RECEIVE=8, WAITACK=4, WAITAIFS=2, WAITCTS=6, WAITMULTICAST=5, WAITSIFS=7"
attr enumname  Ieee80211Mac
vector 204  AODVVANET.vehicle[6].wlan.mac  "throughput AC0"  ETV
vector 193  AODVVANET.vehicle[6].wlan.radio  bitrate:vector  ETV
attr interpolationmode  sample-hold
attr title  "tx bitrate, vector"
attr unit  bps
vector 195  AODVVANET.vehicle[6].wlan.radio  radioState:vector  ETV
attr interpolationmode  sample-hold
attr title  "radio state (enum), vector"
vector 194  AODVVANET.vehicle[6].wlan.radio  channelNo:vector  ETV
attr interpolationmode  sample-hold
attr title  "channel no, vector"
vector 197  AODVVANET.vehicle[6].mobility  posx  ETV
vector 198  AODVVANET.vehicle[6].mobility  posy  ETV
vector 180  AODVVANET.vehicle[6].udp  sentPk:vector(packetBytes)  ETV
attr interpolationmode  none
attr source  sentPk
attr title  "packets sent, vector(packetBytes)"
vector 191  AODVVANET.vehicle[6].wlan.mac  rcvdPkFromHL:vector(packetBytes)  ETV
attr interpolationmode  none
attr source  packetReceivedFromUpper
attr title  "packets received from higher layer, vector(packetBytes)"
vector 190  AODVVANET.vehicle[6].wlan.mac  sentDownPk:vector(packetBytes)  ETV
attr interpolationmode  none
attr source  packetSentToLower
attr title  "packets sent to lower layer, vector(packetBytes)"
vector 179  AODVVANET.vehicle[5].wlan.radio  snirVector  ETV
vector 165  AODVVANET.vehicle[5].wlan.mac  rcvdPkFromLL:vector(packetBytes)  ETV
attr interpolationmode  none
attr source  packetReceivedFromLower
attr title  "packets received from lower layer, vector(packetBytes)"
vector 162  AODVVANET.vehicle[5].wlan.mac  passedUpPk:vector(packetBytes)  ETV
attr interpolationmode  none
attr source  packetSentToUpper
attr title  "packets passed to higher layer, vector(packetBytes)"
vector 206  AODVVANET.vehicle[6].wlan.radio  snirVector  ETV
vector 192  AODVVANET.vehicle[6].wlan.mac  rcvdPkFromLL:vector(packetBytes)  ETV
attr interpolationmode  none
attr source  packetReceivedFromLower
attr title  "packets received from lower layer, vector(packetBytes)"
vector 189  AODVVANET.vehicle[6].wlan.mac  passedUpPk:vector(packetBytes)  ETV
attr interpolationmode  none
attr source  packetSentToUpper
attr title  "packets passed to higher layer, vector(packetBytes)"
vector 186  AODVVANET.vehicle[6].networkLayer.arp  sentReply:vector  ETV
attr title  "ARP replies sent, vector"
vector 205  AODVVANET.vehicle[6].wlan.mac  "Mac delay AC0"  ETV
vector 178  AODVVANET.vehicle[5].wlan.mac  "Mac delay AC0"  ETV
vector 154  AODVVANET.vehicle[5].udp  rcvdPk:vector(packetBytes)  ETV
attr interpolationmode  none
attr source  rcvdPk
attr title  "packets received, vector(packetBytes)"
vector 155  AODVVANET.vehicle[5].udp  passedUpPk:vector(count)  ETV
attr interpolationmode  none
attr title  "packets passed up, vector(count)"
vector 199  AODVVANET.vehicle[6].mobility  speed  ETV
vector 214  AODVVANET.vehicle[7].wlan.mgmt  dataQueueLen:vector  ETV
attr interpolationmode  sample-hold
attr title  "data queue length, vector"
vector 229  AODVVANET.vehicle[7].wlan.mac  RadioState  ETV
attr enum  "IDLE=0, OFF=4, RECV=1, SLEEP=3, TRANSMIT=2"
attr enumname  RadioState
vector 228  AODVVANET.vehicle[7].wlan.mac  State  ETV
attr enum  "BACKOFF=3, DEFER=1, IDLE=0, RECEIVE=8, WAITACK=4, WAITAIFS=2, WAITCTS=6, WAITMULTICAST=5, WAITSIFS=7"
attr enumname  Ieee80211Mac
vector 231  AODVVANET.vehicle[7].wlan.mac  "throughput AC0"  ETV
vector 220  AODVVANET.vehicle[7].wlan.radio  bitrate:vector  ETV
attr interpolationmode  sample-hold
attr title  "tx bitrate, vector"
attr unit  bps
vector 222  AODVVANET.vehicle[7].wlan.radio  radioState:vector  ETV
attr interpolationmode  sample-hold
attr title  "radio state (enum), vector"
vector 221  AODVVANET.vehicle[7].wlan.radio  channelNo:vector  ETV
attr interpolationmode  sample-hold
attr title  "channel no, vector"
vector 224  AODVVANET.vehicle[7].mobility  posx  ETV
vector 225  AODVVANET.vehicle[7].mobility  posy  ETV
vector 200  AODVVANET.vehicle[6].mobility  acceleration  ETV
vector 207  AODVVANET.vehicle[7].udp  sentPk:vector(packetBytes)  ETV
attr interpolationmode  none
attr source  sentPk
attr title  "packets sent, vector(packetBytes)"
vector 218  AODVVANET.vehicle[7].wlan.mac  rcvdPkFromHL:vector(packetBytes)  ETV
attr interpolationmode  none
attr source  packetReceivedFromUpper
attr title  "packets received from higher layer, vector(packetBytes)"
vector 217  AODVVANET.vehicle[7].wlan.mac  sentDownPk:vector(packetBytes)  ETV
attr interpolationmode  none
attr source  packetSentToLower
attr title  "packets sent to lower layer, vector(packetBytes)"
vector 226  AODVVANET.vehicle[7].mobility  speed  ETV
vector 227  AODVVANET.vehicle[7].mobility  acceleration  ETV
vector 241  AODVVANET.vehicle[8].wlan.mgmt  dataQueueLen:vector  ETV
attr interpolationmode  sample-hold
attr title  "data queue length, vector"
vector 256  AODVVANET.vehicle[8].wlan.mac  RadioState  ETV
attr enum  "IDLE=0, OFF=4, RECV=1, SLEEP=3, TRANSMIT=2"
attr enumname  RadioState
vector 255  AODVVANET.vehicle[8].wlan.mac  State  ETV
attr enum  "BACKOFF=3, DEFER=1, IDLE=0, RECEIVE=8, WAITACK=4, WAITAIFS=2, WAITCTS=6, WAITMULTICAST=5, WAITSIFS=7"
attr enumname  Ieee80211Mac
vector 258  AODVVANET.vehicle[8].wlan.mac  "throughput AC0"  ETV
vector 247  AODVVANET.vehicle[8].wlan.radio  bitrate:vector  ETV
attr interpolationmode  sample-hold
attr title  "tx bitrate, vector"
attr unit  bps
vector 249  AODVVANET.vehicle[8].wlan.radio  radioState:vector  ETV
attr interpolationmode  sample-hold
attr title  "radio state (enum), vector"
vector 248  AODVVANET.vehicle[8].wlan.radio  channelNo:vector  ETV
attr interpolationmode  sample-hold
attr title  "channel no, vector"
vector 251  AODVVANET.vehicle[8].mobility  posx  ETV
vector 252  AODVVANET.vehicle[8].mobility  posy  ETV
vector 234  AODVVANET.vehicle[8].udp  sentPk:vector(packetBytes)  ETV
attr interpolationmode  none
attr source  sentPk
attr title  "packets sent, vector(packetBytes)"
vector 245  AODVVANET.vehicle[8].wlan.mac  rcvdPkFromHL:vector(packetBytes)  ETV
attr interpolationmode  none
attr source  packetReceivedFromUpper
attr title  "packets received from higher layer, vector(packetBytes)"
vector 244  AODVVANET.vehicle[8].wlan.mac  sentDownPk:vector(packetBytes)  ETV
attr interpolationmode  none
attr source  packetSentToLower
attr title  "packets sent to lower layer, vector(packetBytes)"
vector 253  AODVVANET.vehicle[8].mobility  speed  ETV
vector 254  AODVVANET.vehicle[8].mobility  acceleration  ETV
vector 268  AODVVANET.vehicle[9].wlan.mgmt  dataQueueLen:vector  ETV
attr interpolationmode  sample-hold
attr title  "data queue length, vector"
vector 283  AODVVANET.vehicle[9].wlan.mac  RadioState  ETV
attr enum  "IDLE=0, OFF=4, RECV=1, SLEEP=3, TRANSMIT=2"
attr enumname  RadioState
vector 282  AODVVANET.vehicle[9].wlan.mac  State  ETV
attr enum  "BACKOFF=3, DEFER=1, IDLE=0, RECEIVE=8, WAITACK=4, WAITAIFS=2, WAITCTS=6, WAITMULTICAST=5, WAITSIFS=7"
attr enumname  Ieee80211Mac
vector 285  AODVVANET.vehicle[9].wlan.mac  "throughput AC0"  ETV
vector 274  AODVVANET.vehicle[9].wlan.radio  bitrate:vector  ETV
attr interpolationmode  sample-hold
attr title  "tx bitrate, vector"
attr unit  bps
vector 276  AODVVANET.vehicle[9].wlan.radio  radioState:vector  ETV
attr interpolationmode  sample-hold
attr title  "radio state (enum), vector"
vector 275  AODVVANET.vehicle[9].wlan.radio  channelNo:vector  ETV
attr interpolationmode  sample-hold
attr title  "channel no, vector"
vector 278  AODVVANET.vehicle[9].mobility  posx  ETV
vector 279  AODVVANET.vehicle[9].mobility  posy  ETV
vector 261  AODVVANET.vehicle[9].udp  sentPk:vector(packetBytes)  ETV
attr interpolationmode  none
attr source  sentPk
attr title  "packets sent, vector(packetBytes)"
vector 272  AODVVANET.vehicle[9].wlan.mac  rcvdPkFromHL:vector(packetBytes)  ETV
attr interpolationmode  none
attr source  packetReceivedFromUpper
attr title  "packets received from higher layer, vector(packetBytes)"
vector 271  AODVVANET.vehicle[9].wlan.mac  sentDownPk:vector(packetBytes)  ETV
attr interpolationmode  none
attr source  packetSentToLower
attr title  "packets sent to lower layer, vector(packetBytes)"
vector 280  AODVVANET.vehicle[9].mobility  speed  ETV
vector 281  AODVVANET.vehicle[9].mobility  acceleration  ETV
vector 295  AODVVANET.vehicle[10].wlan.mgmt  dataQueueLen:vector  ETV
attr interpolationmode  sample-hold
attr title  "data queue length, vector"
vector 310  AODVVANET.vehicle[10].wlan.mac  RadioState  ETV
attr enum  "IDLE=0, OFF=4, RECV=1, SLEEP=3, TRANSMIT=2"
attr enumname  RadioState
vector 309  AODVVANET.vehicle[10].wlan.mac  State  ETV
attr enum  "BACKOFF=3, DEFER=1, IDLE=0, RECEIVE=8, WAITACK=4, WAITAIFS=2, WAITCTS=6, WAITMULTICAST=5, WAITSIFS=7"
attr enumname  Ieee80211Mac
vector 312  AODVVANET.vehicle[10].wlan.mac  "throughput AC0"  ETV
vector 301  AODVVANET.vehicle[10].wlan.radio  bitrate:vector  ETV
attr interpolationmode  sample-hold
attr title  "tx bitrate, vector"
attr unit  bps
vector 303  AODVVANET.vehicle[10].wlan.radio  radioState:vector  ETV
attr interpolationmode  sample-hold
attr title  "radio state (enum), vector"
vector 302  AODVVANET.vehicle[10].wlan.radio  channelNo:vector  ETV
attr interpolationmode  sample-hold
attr title  "channel no, vector"
vector 305  AODVVANET.vehicle[10].mobility  posx  ETV
vector 306  AODVVANET.vehicle[10].mobility  posy  ETV
vector 288  AODVVANET.vehicle[10].udp  sentPk:vector(packetBytes)  ETV
attr interpolationmode  none
attr source  sentPk
attr title  "packets sent, vector(packetBytes)"
vector 299  AODVVANET.vehicle[10].wlan.mac  rcvdPkFromHL:vector(packetBytes)  ETV
attr interpolationmode  none
attr source  packetReceivedFromUpper
attr title  "packets received from higher layer, vector(packetBytes)"
vector 298  AODVVANET.vehicle[10].wlan.mac  sentDownPk:vector(packetBytes)  ETV
attr interpolationmode  none
attr source  packetSentToLower
attr title  "packets sent to lower layer, vector(packetBytes)"
vector 307  AODVVANET.vehicle[10].mobility  speed  ETV
vector 308  AODVVANET.vehicle[10].mobility  acceleration  ETV
vector 322  AODVVANET.vehicle[11].wlan.mgmt  dataQueueLen:vector  ETV
attr interpolationmode  sample-hold
attr title  "data queue length, vector"
vector 337  AODVVANET.vehicle[11].wlan.mac  RadioState  ETV
attr enum  "IDLE=0, OFF=4, RECV=1, SLEEP=3, TRANSMIT=2"
attr enumname  RadioState
vector 336  AODVVANET.vehicle[11].wlan.mac  State  ETV
attr enum  "BACKOFF=3, DEFER=1, IDLE=0, RECEIVE=8, WAITACK=4, WAITAIFS=2, WAITCTS=6, WAITMULTICAST=5, WAITSIFS=7"
attr enumname  Ieee80211Mac
vector 339  AODVVANET.vehicle[11].wlan.mac  "throughput AC0"  ETV
vector 328  AODVVANET.vehicle[11].wlan.radio  bitrate:vector  ETV
attr interpolationmode  sample-hold
attr title  "tx bitrate, vector"
attr unit  bps
vector 330  AODVVANET.vehicle[11].wlan.radio  radioState:vector  ETV
attr interpolationmode  sample-hold
attr title  "radio state (enum), vector"
vector 329  AODVVANET.vehicle[11].wlan.radio  channelNo:vector  ETV
attr interpolationmode  sample-hold
attr title  "channel no, vector"
vector 332  AODVVANET.vehicle[11].mobility  posx  ETV
vector 333  AODVVANET.vehicle[11].mobility  posy  ETV
vector 315  AODVVANET.vehicle[11].udp  sentPk:vector(packetBytes)  ETV
attr interpolationmode  none
attr source  sentPk
attr title  "packets sent, vector(packetBytes)"
vector 326  AODVVANET.vehicle[11].wlan.mac  rcvdPkFromHL:vector(packetBytes)  ETV
attr interpolationmode  none
attr source  packetReceivedFromUpper
attr title  "packets received from higher layer, vector(packetBytes)"
vector 325  AODVVANET.vehicle[11].wlan.mac  sentDownPk:vector(packetBytes)  ETV
attr interpolationmode  none
attr source  packetSentToLower
attr title  "packets sent to lower layer, vector(packetBytes)"
18	18	8	8
25	11	8	0
29	23	8.003013816851	62
29	33	8.322724415886	62
29	43	8.802118273983	62
29	55	9.443229470575	62
29	99	12.401363281472	62
29	188	15.360101091995	62
28	24	8.003063816851	62
28	34	8.322774415886	62
28	44	8.802168273983	62
28	56	9.443279470575	62
28	100	12.401413281472	62
28	189	15.360151091995	62
32	11	8	0
31	11	8	2000000
33	11	8	0
33	25	8.003063816851	2
33	27	8.003751816851	0
33	35	8.322774415886	2
33	37	8.323462415886	0
33	45	8.802168273983	2
33	47	8.802856273983	0
33	57	9.443279470575	2
33	59	9.443967470575	0
33	101	12.401413281472	2
33	103	12.402101281472	0
33	190	15.360151091995	2
33	192	15.360839091995	0
38	63	10	1.8350836683181
38	65	11	1.9448712467123
38	67	12	1.8136934457649
38	118	13	2.0183197392081
38	170	14	1.9672926391754
38	184	15	0.3849004164446
38	198	16	0.0037568729696797
38	212	17	-0.050211466467008
38	226	18	0.095115217831918
38	270	19	-0.097956197597087
38	295	20	0.028486969871446
38	349	21	0.070520901682322
38	365	22	-0.084526966430714
38	401	23	-0.008811568219679
38	419	24	0.020800689312162
38	446	25	0.042157191061415
38	567	26	-0.00032024101819772
38	575	27	-0.0082896548951972
38	632	28	-0.047989779484924
38	652	29	0.023778799327555
38	661	30	-0.026803636874538
38	673	31	0.079344758733642
38	732	32	-0.0098655467503708
38	752	33	-0.018700326881371
38	762	34	-0.011528777175117
38	782	35	0.050491976549383
38	841	36	-0.05975564290071
38	862	37	-0.0053128875372934
38	874	38	-0.01678570257034
38	895	39	0.080955303313676
38	916	40	-0.053050528937019
38	966	41	0.01857890383806
38	989	42	-0.036024419304448
38	1011	43	-0.0016288293781699
38	1023	44	0.011973146165255
38	1045	45	0.071631164073478
37	51	9	3.9572089270348
37	63	10	5.7922925953529
37	65	11	7.7371638420652
37	67	12	9.5508572878301
37	118	13	11.569177027038
37	170	14	13.536469666214
37	184	15	13.921370082658
37	198	16	13.925126955628
37	212	17	13.874915489161
37	226	18	13.970030706993
37	270	19	13.872074509396
37	295	20	13.900561479267
37	349	21	13.97108238095
37	365	22	13.886555414519
37	401	23	13.877743846299
37	419	24	13.898544535611
37	446	25	13.940701726673
37	567	26	13.940381485655
37	575	27	13.932091830759
37	632	28	13.884102051274
37	652	29	13.907880850602
37	661	30	13.881077213727
37	673	31	13.960421972461
37	732	32	13.950556425711
37	752	33	13.931856098829
37	762	34	13.920327321654
37	782	35	13.970819298204
37	841	36	13.911063655303
37	862	37	13.905750767766
37	874	38	13.888965065195
37	895	39	13.969920368509
37	916	40	13.916869839572
37	966	41	13.93544874341
37	989	42	13.899424324105
37	1011	43	13.897795494727
37	1023	44	13.909768640893
37	1045	45	13.981399804966
36	11	8	29.95
36	51	9	29.95
36	63	10	29.95
36	65	11	29.95
36	67	12	29.95
36	118	13	29.95
36	170	14	29.95
36	184	15	29.95
36	198	16	29.95
36	212	17	29.95
36	226	18	29.95
36	270	19	29.95
36	295	20	29.95
36	349	21	29.95
36	365	22	29.95
36	401	23	29.95
36	419	24	29.95
36	446	25	29.95
36	567	26	29.95
36	575	27	29.95
36	632	28	29.95
36	652	29	29.95
36	661	30	29.95
36	673	31	29.95
36	732	32	29.95
36	752	33	29.95
36	762	34	29.95
36	782	35	29.95
36	841	36	29.95
36	862	37	29.95
36	874	38	29.95
36	895	39	29.95
36	916	40	29.95
36	966	41	29.95
36	989	42	29.95
36	1011	43	29.95
36	1023	44	29.95
36	1045	45	29.95
35	11	8	532.58130028169
35	51	9	532.58130028169
35	63	10	535.64220652384
35	65	11	540.58854646133
35	67	12	547.5096110891
35	118	13	556.20547616283
35	170	14	566.87297367358
35	184	15	579.52279089943
35	198	16	593.43794467716
35	212	17	607.38530978293
35	226	18	621.32013833981
35	270	19	635.24699600787
35	295	20	649.1941777867
35	349	21	663.13648521327
35	365	22	677.07585938965
35	401	23	690.99859004776
35	419	24	704.95126457694
35	446	25	718.87834410003
35	567	26	732.82707449129
35	575	27	746.76616108383
35	632	28	760.70147036996
35	652	29	774.63248683062
35	661	30	788.55317429456
35	673	31	802.50207380877
35	732	32	816.40906465876
35	752	33	830.33010897838
35	762	34	844.26583061338
35	782	35	858.20237639496
35	841	36	872.14193913609
35	862	37	886.08741924334
35	874	38	900.01226799928
35	895	39	913.92307674099
35	916	40	927.86167222958
35	966	41	941.79532443604
35	989	42	955.704465404
35	1011	43	969.61255654996
35	1023	44	983.53170791574
35	1045	45	997.4600291739
42	11	8	0
42	33	8.322724415886	1536.9150135055
42	43	8.802118273983	1034.6398720437
42	55	9.443229470575	773.65674260038
42	99	12.401363281472	167.67328042189
42	188	15.360101091995	167.63905143468
40	11	8	0
40	11	8	0
40	25	8.003063816851	0
40	25	8.003063816851	2
40	27	8.003751816851	2
40	27	8.003751816851	0
40	35	8.322774415886	0
40	35	8.322774415886	2
40	37	8.323462415886	2
40	37	8.323462415886	0
40	45	8.802168273983	0
40	45	8.802168273983	2
40	47	8.802856273983	2
40	47	8.802856273983	0
40	57	9.443279470575	0
40	57	9.443279470575	2
40	59	9.443967470575	2
40	59	9.443967470575	0
40	101	12.401413281472	0
40	101	12.401413281472	2
40	103	12.402101281472	2
40	103	12.402101281472	0
40	190	15.360151091995	0
40	190	15.360151091995	2
40	192	15.360839091995	2
40	192	15.360839091995	0
39	11	8	0
39	11	8	0
39	23	8.003013816851	0
39	23	8.003013816851	2
39	24	8.003063816851	2
39	24	8.003063816851	5
39	25	8.003063816851	5
39	25	8.003063816851	5
39	26	8.003751816851	5
39	26	8.003751816851	1
39	27	8.003751816851	1
39	27	8.003751816851	2
39	28	8.003801816851	2
39	28	8.003801816851	3
39	29	8.003861816851	3
39	29	8.003861816851	0
39	33	8.322724415886	0
39	33	8.322724415886	2
39	34	8.322774415886	2
39	34	8.322774415886	5
39	35	8.322774415886	5
39	35	8.322774415886	5
39	36	8.323462415886	5
39	36	8.323462415886	1
39	37	8.323462415886	1
39	37	8.323462415886	2
39	38	8.323512415886	2
39	38	8.323512415886	3
39	39	8.323652415886	3
39	39	8.323652415886	0
39	43	8.802118273983	0
39	43	8.802118273983	2
39	44	8.802168273983	2
39	44	8.802168273983	5
39	45	8.802168273983	5
39	45	8.802168273983	5
39	46	8.802856273983	5