version 2
run AODVVANET-Simple-100-0-20150821-23:33:56-25617
attr configname AODVVANET-Simple-100
attr datetime 20150821-23:33:56
attr experiment AODVVANET-Simple-100
attr inifile omnetpp.ini
attr iterationvars ""
attr iterationvars2 $repetition=0
attr measurement ""
attr network AODVVANET
attr processid 25617
attr repetition 0
attr replication #0
attr resultdir results
attr runnumber 0
attr seedset 0

vector 2  AODVVANET.rsu[0].wlan.mgmt  dataQueueLen:vector  ETV
attr interpolationmode  sample-hold
attr title  "data queue length, vector"
vector 13  AODVVANET.rsu[0].wlan.mac  RadioState  ETV
attr enum  "IDLE=0, OFF=4, RECV=1, SLEEP=3, TRANSMIT=2"
attr enumname  RadioState
vector 12  AODVVANET.rsu[0].wlan.mac  State  ETV
attr enum  "BACKOFF=3, DEFER=1, IDLE=0, RECEIVE=8, WAITACK=4, WAITAIFS=2, WAITCTS=6, WAITMULTICAST=5, WAITSIFS=7"
attr enumname  Ieee80211Mac
vector 8  AODVVANET.rsu[0].wlan.radio  bitrate:vector  ETV
attr interpolationmode  sample-hold
attr title  "tx bitrate, vector"
attr unit  bps
vector 10  AODVVANET.rsu[0].wlan.radio  radioState:vector  ETV
attr interpolationmode  sample-hold
attr title  "radio state (enum), vector"
vector 9  AODVVANET.rsu[0].wlan.radio  channelNo:vector  ETV
attr interpolationmode  sample-hold
attr title  "channel no, vector"
vector 25  AODVVANET.vehicle[0].wlan.mgmt  dataQueueLen:vector  ETV
attr interpolationmode  sample-hold
attr title  "data queue length, vector"
vector 40  AODVVANET.vehicle[0].wlan.mac  RadioState  ETV
attr enum  "IDLE=0, OFF=4, RECV=1, SLEEP=3, TRANSMIT=2"
attr enumname  RadioState
vector 39  AODVVANET.vehicle[0].wlan.mac  State  ETV
attr enum  "BACKOFF=3, DEFER=1, IDLE=0, RECEIVE=8, WAITACK=4, WAITAIFS=2, WAITCTS=6, WAITMULTICAST=5, WAITSIFS=7"
attr enumname  Ieee80211Mac
vector 42  AODVVANET.vehicle[0].wlan.mac  "throughput AC0"  ETV
vector 31  AODVVANET.vehicle[0].wlan.radio  bitrate:vector  ETV
attr interpolationmode  sample-hold
attr title  "tx bitrate, vector"
attr unit  bps
vector 33  AODVVANET.vehicle[0].wlan.radio  radioState:vector  ETV
attr interpolationmode  sample-hold
attr title  "radio state (enum), vector"
vector 32  AODVVANET.vehicle[0].wlan.radio  channelNo:vector  ETV
attr interpolationmode  sample-hold
attr title  "channel no, vector"
vector 35  AODVVANET.vehicle[0].mobility  posx  ETV
vector 36  AODVVANET.vehicle[0].mobility  posy  ETV
vector 18  AODVVANET.vehicle[0].udp  sentPk:vector(packetBytes)  ETV
attr interpolationmode  none
attr source  sentPk
attr title  "packets sent, vector(packetBytes)"
vector 23  AODVVANET.vehicle[0].networkLayer.arp  sentReq:vector  ETV
attr title  "ARP request sent, vector"
vector 29  AODVVANET.vehicle[0].wlan.mac  rcvdPkFromHL:vector(packetBytes)  ETV
attr interpolationmode  none
attr source  packetReceivedFromUpper
attr title  "packets received from higher layer, vector(packetBytes)"
vector 28  AODVVANET.vehicle[0].wlan.mac  sentDownPk:vector(packetBytes)  ETV
attr interpolationmode  none
attr source  packetSentToLower
attr title  "packets sent to lower layer, vector(packetBytes)"
vector 15  AODVVANET.rsu[0].wlan.mac  "throughput AC0"  ETV
vector 17  AODVVANET.rsu[0].wlan.radio  snirVector  ETV
vector 7  AODVVANET.rsu[0].wlan.mac  rcvdPkFromLL:vector(packetBytes)  ETV
attr interpolationmode  none
attr source  packetReceivedFromLower
attr title  "packets received from lower layer, vector(packetBytes)"
vector 4  AODVVANET.rsu[0].wlan.mac  passedUpPk:vector(packetBytes)  ETV
attr interpolationmode  none
attr source  packetSentToUpper
attr title  "packets passed to higher layer, vector(packetBytes)"
vector 37  AODVVANET.vehicle[0].mobility  speed  ETV
vector 38  AODVVANET.vehicle[0].mobility  acceleration  ETV
vector 52  AODVVANET.vehicle[1].wlan.mgmt  dataQueueLen:vector  ETV
attr interpolationmode  sample-hold
attr title  "data queue length, vector"
vector 67  AODVVANET.vehicle[1].wlan.mac  RadioState  ETV
attr enum  "IDLE=0, OFF=4, RECV=1, SLEEP=3, TRANSMIT=2"
attr enumname  RadioState
vector 66  AODVVANET.vehicle[1].wlan.mac  State  ETV
attr enum  "BACKOFF=3, DEFER=1, IDLE=0, RECEIVE=8, WAITACK=4, WAITAIFS=2, WAITCTS=6, WAITMULTICAST=5, WAITSIFS=7"
attr enumname  Ieee80211Mac
vector 69  AODVVANET.vehicle[1].wlan.mac  "throughput AC0"  ETV
vector 58  AODVVANET.vehicle[1].wlan.radio  bitrate:vector  ETV
attr interpolationmode  sample-hold
attr title  "tx bitrate, vector"
attr unit  bps
vector 60  AODVVANET.vehicle[1].wlan.radio  radioState:vector  ETV
attr interpolationmode  sample-hold
attr title  "radio state (enum), vector"
vector 59  AODVVANET.vehicle[1].wlan.radio  channelNo:vector  ETV
attr interpolationmode  sample-hold
attr title  "channel no, vector"
vector 62  AODVVANET.vehicle[1].mobility  posx  ETV
vector 63  AODVVANET.vehicle[1].mobility  posy  ETV
vector 45  AODVVANET.vehicle[1].udp  sentPk:vector(packetBytes)  ETV
attr interpolationmode  none
attr source  sentPk
attr title  "packets sent, vector(packetBytes)"
vector 56  AODVVANET.vehicle[1].wlan.mac  rcvdPkFromHL:vector(packetBytes)  ETV
attr interpolationmode  none
attr source  packetReceivedFromUpper
attr title  "packets received from higher layer, vector(packetBytes)"
vector 55  AODVVANET.vehicle[1].wlan.mac  sentDownPk:vector(packetBytes)  ETV
attr interpolationmode  none
attr source  packetSentToLower
attr title  "packets sent to lower layer, vector(packetBytes)"
vector 44  AODVVANET.vehicle[0].wlan.radio  snirVector  ETV
vector 30  AODVVANET.vehicle[0].wlan.mac  rcvdPkFromLL:vector(packetBytes)  ETV
attr interpolationmode  none
attr source  packetReceivedFromLower
attr title  "packets received from lower layer, vector(packetBytes)"
vector 27  AODVVANET.vehicle[0].wlan.mac  passedUpPk:vector(packetBytes)  ETV
attr interpolationmode  none
attr source  packetSentToUpper
attr title  "packets passed to higher layer, vector(packetBytes)"
vector 71  AODVVANET.vehicle[1].wlan.radio  snirVector  ETV
vector 57  AODVVANET.vehicle[1].wlan.mac  rcvdPkFromLL:vector(packetBytes)  ETV
attr interpolationmode  none
attr source  packetReceivedFromLower
attr title  "packets received from lower layer, vector(packetBytes)"
vector 54  AODVVANET.vehicle[1].wlan.mac  passedUpPk:vector(packetBytes)  ETV
attr interpolationmode  none
attr source  packetSentToUpper
attr title  "packets passed to higher layer, vector(packetBytes)"
vector 51  AODVVANET.vehicle[1].networkLayer.arp  sentReply:vector  ETV
attr title  "ARP replies sent, vector"
vector 70  AODVVANET.vehicle[1].wlan.mac  "Mac delay AC0"  ETV
vector 43  AODVVANET.vehicle[0].wlan.mac  "Mac delay AC0"  ETV
vector 19  AODVVANET.vehicle[0].udp  rcvdPk:vector(packetBytes)  ETV
attr interpolationmode  none
attr source  rcvdPk
attr title  "packets received, vector(packetBytes)"
vector 20  AODVVANET.vehicle[0].udp  passedUpPk:vector(count)  ETV
attr interpolationmode  none
attr title  "packets passed up, vector(count)"
vector 79  AODVVANET.vehicle[2].wlan.mgmt  dataQueueLen:vector  ETV
attr interpolationmode  sample-hold
attr title  "data queue length, vector"
vector 94  AODVVANET.vehicle[2].wlan.mac  RadioState  ETV
attr enum  "IDLE=0, OFF=4, RECV=1, SLEEP=3, TRANSMIT=2"
attr enumname  RadioState
vector 93  AODVVANET.vehicle[2].wlan.mac  State  ETV
attr enum  "BACKOFF=3, DEFER=1, IDLE=0, RECEIVE=8, WAITACK=4, WAITAIFS=2, WAITCTS=6, WAITMULTICAST=5, WAITSIFS=7"
attr enumname  Ieee80211Mac
vector 96  AODVVANET.vehicle[2].wlan.mac  "throughput AC0"  ETV
vector 85  AODVVANET.vehicle[2].wlan.radio  bitrate:vector  ETV
attr interpolationmode  sample-hold
attr title  "tx bitrate, vector"
attr unit  bps
vector 87  AODVVANET.vehicle[2].wlan.radio  radioState:vector  ETV
attr interpolationmode  sample-hold
attr title  "radio state (enum), vector"
vector 86  AODVVANET.vehicle[2].wlan.radio  channelNo:vector  ETV
attr interpolationmode  sample-hold
attr title  "channel no, vector"
vector 89  AODVVANET.vehicle[2].mobility  posx  ETV
vector 90  AODVVANET.vehicle[2].mobility  posy  ETV
vector 64  AODVVANET.vehicle[1].mobility  speed  ETV
vector 72  AODVVANET.vehicle[2].udp  sentPk:vector(packetBytes)  ETV
attr interpolationmode  none
attr source  sentPk
attr title  "packets sent, vector(packetBytes)"
vector 83  AODVVANET.vehicle[2].wlan.mac  rcvdPkFromHL:vector(packetBytes)  ETV
attr interpolationmode  none
attr source  packetReceivedFromUpper
attr title  "packets received from higher layer, vector(packetBytes)"
vector 82  AODVVANET.vehicle[2].wlan.mac  sentDownPk:vector(packetBytes)  ETV
attr interpolationmode  none
attr source  packetSentToLower
attr title  "packets sent to lower layer, vector(packetBytes)"
vector 65  AODVVANET.vehicle[1].mobility  acceleration  ETV
vector 91  AODVVANET.vehicle[2].mobility  speed  ETV
vector 92  AODVVANET.vehicle[2].mobility  acceleration  ETV
vector 106  AODVVANET.vehicle[3].wlan.mgmt  dataQueueLen:vector  ETV
attr interpolationmode  sample-hold
attr title  "data queue length, vector"
vector 121  AODVVANET.vehicle[3].wlan.mac  RadioState  ETV
attr enum  "IDLE=0, OFF=4, RECV=1, SLEEP=3, TRANSMIT=2"
attr enumname  RadioState
vector 120  AODVVANET.vehicle[3].wlan.mac  State  ETV
attr enum  "BACKOFF=3, DEFER=1, IDLE=0, RECEIVE=8, WAITACK=4, WAITAIFS=2, WAITCTS=6, WAITMULTICAST=5, WAITSIFS=7"
attr enumname  Ieee80211Mac
vector 123  AODVVANET.vehicle[3].wlan.mac  "throughput AC0"  ETV
vector 112  AODVVANET.vehicle[3].wlan.radio  bitrate:vector  ETV
attr interpolationmode  sample-hold
attr title  "tx bitrate, vector"
attr unit  bps
vector 114  AODVVANET.vehicle[3].wlan.radio  radioState:vector  ETV
attr interpolationmode  sample-hold
attr title  "radio state (enum), vector"
vector 113  AODVVANET.vehicle[3].wlan.radio  channelNo:vector  ETV
attr interpolationmode  sample-hold
attr title  "channel no, vector"
vector 116  AODVVANET.vehicle[3].mobility  posx  ETV
vector 117  AODVVANET.vehicle[3].mobility  posy  ETV
vector 99  AODVVANET.vehicle[3].udp  sentPk:vector(packetBytes)  ETV
attr interpolationmode  none
attr source  sentPk
attr title  "packets sent, vector(packetBytes)"
vector 110  AODVVANET.vehicle[3].wlan.mac  rcvdPkFromHL:vector(packetBytes)  ETV
attr interpolationmode  none
attr source  packetReceivedFromUpper
attr title  "packets received from higher layer, vector(packetBytes)"
vector 109  AODVVANET.vehicle[3].wlan.mac  sentDownPk:vector(packetBytes)  ETV
attr interpolationmode  none
attr source  packetSentToLower
attr title  "packets sent to lower layer, vector(packetBytes)"
vector 118  AODVVANET.vehicle[3].mobility  speed  ETV
vector 119  AODVVANET.vehicle[3].mobility  acceleration  ETV
vector 133  AODVVANET.vehicle[4].wlan.mgmt  dataQueueLen:vector  ETV
attr interpolationmode  sample-hold
attr title  "data queue length, vector"
vector 148  AODVVANET.vehicle[4].wlan.mac  RadioState  ETV
attr enum  "IDLE=0, OFF=4, RECV=1, SLEEP=3, TRANSMIT=2"
attr enumname  RadioState
vector 147  AODVVANET.vehicle[4].wlan.mac  State  ETV
attr enum  "BACKOFF=3, DEFER=1, IDLE=0, RECEIVE=8, WAITACK=4, WAITAIFS=2, WAITCTS=6, WAITMULTICAST=5, WAITSIFS=7"
attr enumname  Ieee80211Mac
vector 150  AODVVANET.vehicle[4].wlan.mac  "throughput AC0"  ETV
vector 139  AODVVANET.vehicle[4].wlan.radio  bitrate:vector  ETV
attr interpolationmode  sample-hold
attr title  "tx bitrate, vector"
attr unit  bps
vector 141  AODVVANET.vehicle[4].wlan.radio  radioState:vector  ETV
attr interpolationmode  sample-hold
attr title  "radio state (enum), vector"
vector 140  AODVVANET.vehicle[4].wlan.radio  channelNo:vector  ETV
attr interpolationmode  sample-hold
attr title  "channel no, vector"
vector 143  AODVVANET.vehicle[4].mobility  posx  ETV
vector 144  AODVVANET.vehicle[4].mobility  posy  ETV
vector 126  AODVVANET.vehicle[4].udp  sentPk:vector(packetBytes)  ETV
attr interpolationmode  none
attr source  sentPk
attr title  "packets sent, vector(packetBytes)"
vector 137  AODVVANET.vehicle[4].wlan.mac  rcvdPkFromHL:vector(packetBytes)  ETV
attr interpolationmode  none
attr source  packetReceivedFromUpper
attr title  "packets received from higher layer, vector(packetBytes)"
vector 136  AODVVANET.vehicle[4].wlan.mac  sentDownPk:vector(packetBytes)  ETV
attr interpolationmode  none
attr source  packetSentToLower
attr title  "packets sent to lower layer, vector(packetBytes)"
vector 68  AODVVANET.vehicle[1].wlan.mac  "jitter AC0"  ETV
vector 125  AODVVANET.vehicle[3].wlan.radio  snirVector  ETV
vector 111  AODVVANET.vehicle[3].wlan.mac  rcvdPkFromLL:vector(packetBytes)  ETV
attr interpolationmode  none
attr source  packetReceivedFromLower
attr title  "packets received from lower layer, vector(packetBytes)"
vector 108  AODVVANET.vehicle[3].wlan.mac  passedUpPk:vector(packetBytes)  ETV
attr interpolationmode  none
attr source  packetSentToUpper
attr title  "packets passed to higher layer, vector(packetBytes)"
vector 41  AODVVANET.vehicle[0].wlan.mac  "jitter AC0"  ETV
vector 152  AODVVANET.vehicle[4].wlan.radio  snirVector  ETV
vector 138  AODVVANET.vehicle[4].wlan.mac  rcvdPkFromLL:vector(packetBytes)  ETV
attr interpolationmode  none
attr source  packetReceivedFromLower
attr title  "packets received from lower layer, vector(packetBytes)"
vector 135  AODVVANET.vehicle[4].wlan.mac  passedUpPk:vector(packetBytes)  ETV
attr interpolationmode  none
attr source  packetSentToUpper
attr title  "packets passed to higher layer, vector(packetBytes)"
vector 50  AODVVANET.vehicle[1].networkLayer.arp  sentReq:vector  ETV
attr title  "ARP request sent, vector"
vector 132  AODVVANET.vehicle[4].networkLayer.arp  sentReply:vector  ETV
attr title  "ARP replies sent, vector"
vector 151  AODVVANET.vehicle[4].wlan.mac  "Mac delay AC0"  ETV
vector 149  AODVVANET.vehicle[4].wlan.mac  "jitter AC0"  ETV
vector 131  AODVVANET.vehicle[4].networkLayer.arp  sentReq:vector  ETV
attr title  "ARP request sent, vector"
vector 105  AODVVANET.vehicle[3].networkLayer.arp  sentReply:vector  ETV
attr title  "ARP replies sent, vector"
vector 124  AODVVANET.vehicle[3].wlan.mac  "Mac delay AC0"  ETV
vector 145  AODVVANET.vehicle[4].mobility  speed  ETV
vector 146  AODVVANET.vehicle[4].mobility  acceleration  ETV
vector 160  AODVVANET.vehicle[5].wlan.mgmt  dataQueueLen:vector  ETV
attr interpolationmode  sample-hold
attr title  "data queue length, vector"
vector 175  AODVVANET.vehicle[5].wlan.mac  RadioState  ETV
attr enum  "IDLE=0, OFF=4, RECV=1, SLEEP=3, TRANSMIT=2"
attr enumname  RadioState
vector 174  AODVVANET.vehicle[5].wlan.mac  State  ETV
attr enum  "BACKOFF=3, DEFER=1, IDLE=0, RECEIVE=8, WAITACK=4, WAITAIFS=2, WAITCTS=6, WAITMULTICAST=5, WAITSIFS=7"
attr enumname  Ieee80211Mac
vector 177  AODVVANET.vehicle[5].wlan.mac  "throughput AC0"  ETV
vector 166  AODVVANET.vehicle[5].wlan.radio  bitrate:vector  ETV
attr interpolationmode  sample-hold
attr title  "tx bitrate, vector"
attr unit  bps
vector 168  AODVVANET.vehicle[5].wlan.radio  radioState:vector  ETV
attr interpolationmode  sample-hold
attr title  "radio state (enum), vector"
vector 167  AODVVANET.vehicle[5].wlan.radio  channelNo:vector  ETV
attr interpolationmode  sample-hold
attr title  "channel no, vector"
vector 170  AODVVANET.vehicle[5].mobility  posx  ETV
vector 171  AODVVANET.vehicle[5].mobility  posy  ETV
vector 153  AODVVANET.vehicle[5].udp  sentPk:vector(packetBytes)  ETV
attr interpolationmode  none
attr source  sentPk
attr title  "packets sent, vector(packetBytes)"
vector 164  AODVVANET.vehicle[5].wlan.mac  rcvdPkFromHL:vector(packetBytes)  ETV
attr interpolationmode  none
attr source  packetReceivedFromUpper
attr title  "packets received from higher layer, vector(packetBytes)"
vector 163  AODVVANET.vehicle[5].wlan.mac  sentDownPk:vector(packetBytes)  ETV
attr interpolationmode  none
attr source  packetSentToLower
attr title  "packets sent to lower layer, vector(packetBytes)"
vector 179  AODVVANET.vehicle[5].wlan.radio  snirVector  ETV
vector 165  AODVVANET.vehicle[5].wlan.mac  rcvdPkFromLL:vector(packetBytes)  ETV
attr interpolationmode  none
attr source  packetReceivedFromLower
attr title  "packets received from lower layer, vector(packetBytes)"
vector 162  AODVVANET.vehicle[5].wlan.mac  passedUpPk:vector(packetBytes)  ETV
attr interpolationmode  none
attr source  packetSentToUpper
attr title  "packets passed to higher layer, vector(packetBytes)"
vector 159  AODVVANET.vehicle[5].networkLayer.arp  sentReply:vector  ETV
attr title  "ARP replies sent, vector"
vector 178  AODVVANET.vehicle[5].wlan.mac  "Mac delay AC0"  ETV
vector 172  AODVVANET.vehicle[5].mobility  speed  ETV
vector 173  AODVVANET.vehicle[5].mobility  acceleration  ETV
vector 187  AODVVANET.vehicle[6].wlan.mgmt  dataQueueLen:vector  ETV
attr interpolationmode  sample-hold
attr title  "data queue length, vector"
vector 202  AODVVANET.vehicle[6].wlan.mac  RadioState  ETV
attr enum  "IDLE=0, OFF=4, RECV=1, SLEEP=3, TRANSMIT=2"
attr enumname  RadioState
vector 201  AODVVANET.vehicle[6].wlan.mac  State  ETV
attr enum  "BACKOFF=3, DEFER=1, IDLE=0, RECEIVE=8, WAITACK=4, WAITAIFS=2, WAITCTS=6, WAITMULTICAST=5, WAITSIFS=7"
attr enumname  Ieee80211Mac
vector 204  AODVVANET.vehicle[6].wlan.mac  "throughput AC0"  ETV
vector 193  AODVVANET.vehicle[6].wlan.radio  bitrate:vector  ETV
attr interpolationmode  sample-hold
attr title  "tx bitrate, vector"
attr unit  bps
vector 195  AODVVANET.vehicle[6].wlan.radio  radioState:vector  ETV
attr interpolationmode  sample-hold
attr title  "radio state (enum), vector"
vector 194  AODVVANET.vehicle[6].wlan.radio  channelNo:vector  ETV
attr interpolationmode  sample-hold
attr title  "channel no, vector"
vector 197  AODVVANET.vehicle[6].mobility  posx  ETV
vector 198  AODVVANET.vehicle[6].mobility  posy  ETV
vector 180  AODVVANET.vehicle[6].udp  sentPk:vector(packetBytes)  ETV
attr interpolationmode  none
attr source  sentPk
attr title  "packets sent, vector(packetBytes)"
2	0	0	0
4	30	8.000803324595	70
4	48	9.000803324595	70
4	66	10.000803324595	70
4	111	12.003661228268	70
4	796	27.001268077348	62
4	817	27.323106541429	62
4	838	27.323910994528	70
7	30	8.000803324595	70
7	48	9.000803324595	70
7	66	10.000803324595	70
7	111	12.003661228268	70
7	142	12.004500487648	14
7	154	12.005090487648	62
7	190	12.006243747028	14
7	417	22.007022436718	62
7	567	22.013634407578	14
7	734	22.406312333323	14
7	796	27.001268077348	62
7	817	27.323106541429	62
7	838	27.323910994528	70
7	862	27.324433877069	70
7	880	27.324750330168	14
7	895	27.325360330168	62
7	916	27.325675212709	14
7	927	27.326197212709	70
7	944	27.326513665808	14
8	0	0	2000000
9	0	0	0
10	0	0	0
10	26	8.000051324595	1
10	29	8.000803324595	0
10	44	9.000051324595	1
10	47	9.000803324595	0
10	62	10.000051324595	1
10	65	10.000803324595	0
10	106	12.002909228268	1
10	110	12.003661228268	0
10	137	12.004196487648	1
10	141	12.004500487648	0
10	150	12.004650487648	1
10	153	12.005090487648	0
10	185	12.005939747028	1
10	189	12.006243747028	0
10	413	22.006582436718	1
10	416	22.007022436718	0
10	561	22.013330407578	1
10	566	22.013634407578	0
10	728	22.406008333323	1
10	733	22.406312333323	0
10	791	27.000580077348	1
10	795	27.001268077348	0
10	812	27.322418541429	1
10	816	27.323106541429	0
10	832	27.323158994528	1
10	837	27.323910994528	0
10	858	27.323961877069	1
10	861	27.324433877069	0
10	873	27.324446330168	1
10	879	27.324750330168	0
10	890	27.324920330168	1
10	894	27.325360330168	0
10	909	27.325371212709	1
10	915	27.325675212709	0
10	922	27.325725212709	1
10	926	27.326197212709	0
10	937	27.326209665808	1
10	943	27.326513665808	0
12	0	0	0
12	0	0	0
12	26	8.000051324595	0
12	26	8.000051324595	0
12	29	8.000803324595	0
12	29	8.000803324595	0
12	30	8.000803324595	0
12	30	8.000803324595	0
12	44	9.000051324595	0
12	44	9.000051324595	0
12	47	9.000803324595	0
12	47	9.000803324595	0
12	48	9.000803324595	0
12	48	9.000803324595	0
12	62	10.000051324595	0
12	62	10.000051324595	0
12	65	10.000803324595	0
12	65	10.000803324595	0
12	66	10.000803324595	0
12	66	10.000803324595	0
12	106	12.002909228268	0
12	106	12.002909228268	0
12	110	12.003661228268	0
12	110	12.003661228268	0
12	111	12.003661228268	0
12	111	12.003661228268	0
12	137	12.004196487648	0
12	137	12.004196487648	0
12	141	12.004500487648	0
12	141	12.004500487648	0
12	142	12.004500487648	0
12	142	12.004500487648	0
12	150	12.004650487648	0
12	150	12.004650487648	0
12	153	12.005090487648	0
12	153	12.005090487648	0
12	154	12.005090487648	0
12	154	12.005090487648	0
12	155	12.005090487648	0
12	155	12.005090487648	0
12	167	12.005404487648	0
12	167	12.005404487648	0
12	185	12.005939747028	0
12	185	12.005939747028	0
12	189	12.006243747028	0
12	189	12.006243747028	0
12	190	12.006243747028	0
12	190	12.006243747028	0
12	413	22.006582436718	0
12	413	22.006582436718	0
12	416	22.007022436718	0
12	416	22.007022436718	0
12	417	22.007022436718	0
12	417	22.007022436718	0
12	418	22.007022436718	0
12	418	22.007022436718	0
12	429	22.007336436718	0
12	429	22.007336436718	0
12	561	22.013330407578	0
12	561	22.013330407578	0
12	566	22.013634407578	0
12	566	22.013634407578	0
12	567	22.013634407578	0
12	567	22.013634407578	0
12	728	22.406008333323	0
12	728	22.406008333323	0
12	733	22.406312333323	0
12	733	22.406312333323	0
12	734	22.406312333323	0
12	734	22.406312333323	0
12	791	27.000580077348	0
12	791	27.000580077348	0
12	795	27.001268077348	0
12	795	27.001268077348	0
12	796	27.001268077348	0
12	796	27.001268077348	0
12	812	27.322418541429	0
12	812	27.322418541429	0
12	816	27.323106541429	0
12	816	27.323106541429	0
12	817	27.323106541429	0
12	817	27.323106541429	0
12	832	27.323158994528	0
12	832	27.323158994528	0
12	837	27.323910994528	0
12	837	27.323910994528	0
12	838	27.323910994528	0
12	838	27.323910994528	0
12	858	27.323961877069	0
12	858	27.323961877069	0
12	861	27.324433877069	0
12	861	27.324433877069	0
12	862	27.324433877069	0
12	862	27.324433877069	0
12	863	27.324433877069	0
12	863	27.324433877069	0
12	873	27.324446330168	0
12	873	27.324446330168	0
12	877	27.324747877069	0
12	877	27.324747877069	0
12	879	27.324750330168	0
12	879	27.324750330168	0
12	880	27.324750330168	0
12	880	27.324750330168	0
12	890	27.324920330168	0
12	890	27.324920330168	0
12	894	27.325360330168	0
12	894	27.325360330168	0
12	895	27.325360330168	0
12	895	27.325360330168	0
12	896	27.325360330168	0
12	896	27.325360330168	0
12	909	27.325371212709	0
12	909	27.325371212709	0
12	912	27.325674330168	0
12	912	27.325674330168	0
12	915	27.325675212709	0
12	915	27.325675212709	0
12	916	27.325675212709	0
12	916	27.325675212709	0
12	922	27.325725212709	0
12	922	27.325725212709	0
12	926	27.326197212709	0
12	926	27.326197212709	0
12	927	27.326197212709	0
12	927	27.326197212709	0
12	928	27.326197212709	0
12	928	27.326197212709	0
12	937	27.326209665808	0
12	937	27.326209665808	0
12	941	27.326511212709	0
12	941	27.326511212709	0
12	943	27.326513665808	0
12	943	27.326513665808	0
12	944	27.326513665808	0
12	944	27.326513665808	0
13	0	0	0
13	0	0	0
13	26	8.000051324595	0
13	26	8.000051324595	1
13	29	8.000803324595	1
13	29	8.000803324595	0
13	44	9.000051324595	0
13	44	9.000051324595	1
13	47	9.000803324595	1
13	47	9.000803324595	0
13	62	10.000051324595	0
13	62	10.000051324595	1
13	65	10.000803324595	1
13	65	10.000803324595	0
13	106	12.002909228268	0
13	106	12.002909228268	1
13	110	12.003661228268	1
13	110	12.003661228268	0
13	137	12.004196487648	0
13	137	12.004196487648	1
13	141	12.004500487648	1
13	141	12.004500487648	0
13	150	12.004650487648	0
13	150	12.004650487648	1
13	153	12.005090487648	1
13	153	12.005090487648	0
13	185	12.005939747028	0
13	185	12.005939747028	1
13	189	12.006243747028	1
13	189	12.006243747028	0
13	413	22.006582436718	0
13	413	22.006582436718	1
13	416	22.007022436718	1
13	416	22.007022436718	0
13	561	22.013330407578	0
13	561	22.013330407578	1
13	566	22.013634407578	1
13	566	22.013634407578	0
13	728	22.406008333323	0
13	728	22.406008333323	1
13	733	22.406312333323	1
13	733	22.406312333323	0
13	791	27.000580077348	0
13	791	27.000580077348	1
13	795	27.001268077348	1
13	795	27.001268077348	0
13	812	27.322418541429	0
13	812	27.322418541429	1
13	816	27.323106541429	1
13	816	27.323106541429	0
13	832	27.323158994528	0
13	832	27.323158994528	1
13	837	27.323910994528	1
13	837	27.323910994528	0
13	858	27.323961877069	0
13	858	27.323961877069	1
13	861	27.324433877069	1
13	861	27.324433877069	0
13	873	27.324446330168	0
13	873	27.324446330168	1
13	879	27.324750330168	1
13	879	27.324750330168	0
13	890	27.324920330168	0
13	890	27.324920330168	1
13	894	27.325360330168	1
13	894	27.325360330168	0
13	909	27.325371212709	0
13	909	27.325371212709	1
13	915	27.325675212709	1
13	915	27.325675212709	0
13	922	27.325725212709	0
13	922	27.325725212709	1
13	926	27.326197212709	1
13	926	27.326197212709	0
13	937	27.326209665808	0
13	937	27.326209665808	1
13	943	27.326513665808	1
13	943	27.326513665808	0
15	26	8.000051324595	0
15	44	9.000051324595	0
15	62	10.000051324595	0
15	106	12.002909228268	0
15	413	22.006582436718	0
15	728	22.406008333323	0
15	791	27.000580077348	0
15	812	27.322418541429	0
17	29	8.000803324595	30.980211673817
18	18	8	8
19	181	12.005928422433	8
19	554	22.013319082983	8
19	721	22.405997008728	8
19	933	27.326198341213	8
20	181	12.005928422433	1
20	554	22.013319082983	2
20	721	22.405997008728	3
20	933	27.326198341213	4
23	20	8	1
23	38	9	1
23	56	10	1
23	99	12.002857903673	1
23	825	27.323107669933	1
25	11	8	0
27	95	12.002857903673	62
27	129	12.004185163053	70
27	178	12.005928422433	70
27	398	22.006531112123	62
27	448	22.010194411703	70
27	551	22.013319082983	70
27	718	22.405997008728	70
27	800	27.001269205852	62
27	821	27.323107669933	62
27	865	27.324435005573	70
27	930	27.326198341213	70
28	24	8.00005	70
28	42	9.00005	70
28	60	10.00005	70
28	104	12.002907903673	70
28	135	12.004195163053	14
28	148	12.004649163053	62
28	183	12.005938422433	14
28	411	22.006581112123	62
28	559	22.013329082983	14
28	726	22.406007008728	14
28	830	27.323157669933	70
28	871	27.324445005573	14
28	888	27.324919005573	62
28	935	27.326208341213	14
29	23	8	70
29	41	9	70
29	59	10	70
29	102	12.002857903673	70
29	134	12.004185163053	62
29	404	22.006531112123	62
29	828	27.323107669933	70
29	870	27.324435005573	62
30	95	12.002857903673	62
30	129	12.004185163053	70
30	170	12.005406422433	14
30	178	12.005928422433	70
30	398	22.006531112123	62
30	432	22.007338371503	14
30	448	22.010194411703	70
30	484	22.011033747343	14
30	495	22.011543747343	62
30	539	22.012737082983	14
30	551	22.013319082983	70
30	705	22.405475008728	14
30	718	22.405997008728	70
30	800	27.001269205852	62
30	821	27.323107669933	62
30	865	27.324435005573	70
30	918	27.325676341213	14
30	930	27.326198341213	70
31	11	8	2000000
32	11	8	0
33	11	8	0
33	25	8.00005	2
33	28	8.000802	0
33	43	9.00005	2
33	46	9.000802	0
33	61	10.00005	2
33	64	10.000802	0
33	91	12.002169903673	1
33	94	12.002857903673	0
33	105	12.002907903673	2
33	109	12.003659903673	0
33	126	12.003713163053	1
33	128	12.004185163053	0
33	136	12.004195163053	2
33	140	12.004499163053	0
33	149	12.004649163053	2
33	152	12.005089163053	0
33	165	12.005102422433	1
33	169	12.005406422433	0
33	175	12.005456422433	1
33	177	12.005928422433	0
33	184	12.005938422433	2
33	188	12.006242422433	0
33	393	22.005843112123	1
33	397	22.006531112123	0
33	412	22.006581112123	2
33	415	22.007021112123	0
33	426	22.007034371503	1
33	431	22.007338371503	0
33	443	22.009442411703	1
33	447	22.010194411703	0
33	478	22.010729747343	1
33	483	22.011033747343	0
33	491	22.011103747343	1
33	494	22.011543747343	0
33	533	22.012433082983	1
33	538	22.012737082983	0
33	546	22.012847082983	1
33	550	22.013319082983	0
33	560	22.013329082983	2
33	564	22.013633082983	0
33	699	22.405171008728	1
33	704	22.405475008728	0
33	712	22.405525008728	1
33	717	22.405997008728	0
33	727	22.406007008728	2
33	731	22.406311008728	0
33	792	27.000581205852	1
33	799	27.001269205852	0
33	813	27.322419669933	1
33	820	27.323107669933	0
33	831	27.323157669933	2
33	836	27.323909669933	0
33	859	27.323963005573	1
33	864	27.324435005573	0
33	872	27.324445005573	2
33	878	27.324749005573	0
33	889	27.324919005573	2
33	893	27.325359005573	0
33	910	27.325372341213	1
33	917	27.325676341213	0
33	924	27.325726341213	1
33	929	27.326198341213	0
33	936	27.326208341213	2
33	942	27.326512341213	0
35	11	8	531.55
35	37	9	531.55
35	55	10	531.55
35	73	11	531.55
35	76	12	531.55
35	198	13	531.55
35	240	14	531.55
35	254	15	531.55
35	258	16	531.55
35	262	17	531.55
35	278	18	531.55
35	322	19	531.55
35	337	20	531.55
35	352	21	531.55
35	357	22	531.55
35	747	23	531.55
35	754	24	531.55
35	760	25	531.55
35	770	26	531.55
35	776	27	531.55
35	961	28	531.55
35	972	29	531.55
35	979	30	531.55
35	986	31	531.55
36	11	8	29.95
36	37	9	29.95
36	55	10	29.95
36	73	11	29.95
36	76	12	29.95
36	198	13	29.95
36	240	14	29.95
36	254	15	29.95
36	258	16	29.95
36	262	17	29.95
36	278	18	29.95
36	322	19	29.95
36	337	20	29.95
36	352	21	29.95
36	357	22	29.95
36	747	23	29.95
36	754	24	29.95
36	760	25	29.95
36	770	26	29.95
36	776	27	29.95
36	961	28	29.95
36	972	29	29.95
36	979	30	29.95
36	986	31	29.95
37	37	9	0
37	55	10	0
37	73	11	0
37	76	12	0
37	198	13	0
37	240	14	0
37	254	15	0
37	258	16	0
37	262	17	0
37	278	18	0
37	322	19	0
37	337	20	0
37	352	21	0
37	357	22	0
37	747	23	0
37	754	24	0
37	760	25	0
37	770	26	0
37	776	27	0
37	961	28	0
37	972	29	0
37	979	30	0
37	986	31	0
38	55	10	0
38	73	11	0
38	76	12	0
38	198	13	0
38	240	14	0
38	254	15	0
38	258	16	0
38	262	17	0
38	278	18	0
38	322	19	0
38	337	20	0
38	352	21	0
38	357	22	0
38	747	23	0
38	754	24	0
38	760	25	0
38	770	26	0
38	776	27	0
38	961	28	0
38	972	29	0
38	979	30	0
38	986	31	0
39	11	8	0
39	11	8	0
39	23	8	0
39	23	8	2
39	24	8.00005	2
39	24	8.00005	5
39	25	8.00005	5
39	25	8.00005	5
39	27	8.000802	5
39	27	8.000802	1
39	28	8.000802	1
39	28	8.000802	2
39	34	8.000852	2
39	34	8.000852	3
39	35	8.000912	3
39	35	8.000912	0
39	41	9	0
39	41	9	2
39	42	9.00005	2
39	42	9.00005	5
39	43	9.00005	5
39	43	9.00005	5
39	45	9.000802	5
39	45	9.000802	1
39	46	9.000802	1
39	46	9.000802	2
39	52	9.000852	2
39	52	9.000852	3
39	53	9.000912	3
39	53	9.000912	0
39	59	10	0
39	59	10	2
39	60	10.00005	2
39	60	10.00005	5
39	61	10.00005	5
39	61	10.00005	5
39	63	10.000802	5
39	63	10.000802	1
39	64	10.000802	1
39	64	10.000802	2
39	70	10.000852	2
39	70	10.000852	3
39	71	10.000912	3
39	71	10.000912	0
39	91	12.002169903673	0
39	91	12.002169903673	0